 Gaussian 16, Revision A.03,
 Gaussian 16:  ES64L-G16RevA.03 25-Dec-2016

 ------------------------------------------------
 #p opt=readfc wb97xd/6-311+g(2d,2p) guess=tcheck
 ------------------------------------------------

 --------
 Required
 --------
 Symbolic Z-matrix:
 Charge =  0 Multiplicity = 1

 SCF Done:  E(RwB97XD) =  -1810.91129445     A.U. after   11 cycles
 SCF Done:  E(RwB97XD) =  -1810.90719567     A.U. after   14 cycles
 SCF Done:  E(RwB97XD) =  -1810.90896621     A.U. after   12 cycles
 SCF Done:  E(RwB97XD) =  -1810.91132559     A.U. after    9 cycles
 SCF Done:  E(RwB97XD) =  -1810.91127185     A.U. after   11 cycles
 SCF Done:  E(RwB97XD) =  -1810.91083506     A.U. after   12 cycles
 SCF Done:  E(RwB97XD) =  -1810.91135760     A.U. after   12 cycles
 SCF Done:  E(RwB97XD) =  -1810.91091053     A.U. after   12 cycles
 SCF Done:  E(RwB97XD) =  -1810.91125902     A.U. after   12 cycles
 SCF Done:  E(RwB97XD) =  -1810.91138230     A.U. after   11 cycles
 SCF Done:  E(RwB97XD) =  -1810.91147018     A.U. after    9 cycles
 SCF Done:  E(RwB97XD) =  -1810.91147110     A.U. after   10 cycles
 SCF Done:  E(RwB97XD) =  -1810.91147185     A.U. after   10 cycles
 SCF Done:  E(RwB97XD) =  -1810.91147234     A.U. after   10 cycles
 SCF Done:  E(RwB97XD) =  -1810.91147255     A.U. after   10 cycles
 SCF Done:  E(RwB97XD) =  -1810.91147302     A.U. after    9 cycles
 SCF Done:  E(RwB97XD) =  -1810.91147353     A.U. after    9 cycles
 SCF Done:  E(RwB97XD) =  -1810.91147394     A.U. after    8 cycles
 SCF Done:  E(RwB97XD) =  -1810.91147408     A.U. after    8 cycles
 SCF Done:  E(RwB97XD) =  -1810.91147423     A.U. after    8 cycles
 Optimization completed.
    -- Stationary point found.

                         Standard orientation:
 ---------------------------------------------------------------------
 Center     Atomic      Atomic             Coordinates (Angstroms)
 Number     Number       Type             X           Y           Z
 ---------------------------------------------------------------------
      1          6           0        4.091707   -4.570314    1.192857
      2          6           0        3.748392   -3.452757    0.204880
      3          1           0        3.602136   -5.504015    0.915354
      4          1           0        5.168730   -4.742691    1.219263
      5          1           0        3.770756   -4.311745    2.203383
      6          6           0        4.491154   -2.156227    0.566510
      7          1           0        4.101630   -3.760340   -0.783588
      8          6           0        4.204354   -0.985095   -0.369044
      9          1           0        4.287740   -1.317959   -1.409064
     10          1           0        3.169540   -0.666704   -0.232936
     11          6           0        5.149578    0.192445   -0.146680
     12          6           0        4.835104    1.444348   -0.991287
     13          1           0        4.693210    1.116107   -2.024810
     14          6           0        6.014320    2.416964   -0.968077
     15          1           0        5.781055    3.337570   -1.503411
     16          1           0        6.297252    2.681291    0.052406
     17          1           0        6.886991    1.961436   -1.436960
     18          6           0        2.251722   -3.246492    0.093628
     19          6           0        1.491445   -2.843891    1.189751
     20          6           0        1.603211   -3.408440   -1.125948
     21          6           0        0.135784   -2.590755    1.067573
     22          1           0        1.967251   -2.683903    2.149004
     23          6           0        0.246089   -3.154507   -1.254973
     24          1           0        2.174344   -3.697307   -1.999424
     25          6           0       -0.506356   -2.742420   -0.159640
     26          1           0       -0.411958   -2.211801    1.920874
     27          1           0       -0.212152   -3.205931   -2.233783
     28          6           0        3.530926    2.069183   -0.539713
     29          6           0        3.470559    2.958337    0.531036
     30          6           0        2.332269    1.680491   -1.133526
     31          6           0        2.250420    3.407103    1.016028
     32          1           0        4.379622    3.287668    1.016248
     33          6           0        1.113836    2.098586   -0.633011
     34          1           0        2.336053    0.996089   -1.972770
     35          6           0        1.056958    2.966298    0.454235
     36          1           0        2.231175    4.070779    1.873141
     37          1           0        0.207581    1.695356   -1.059352
     38          6           0       -0.261000    3.264056    1.103694
     39          1           0       -0.841532    2.342055    1.149757
     40          1           0       -0.116363    3.648580    2.112794
     41          6           0       -1.936400   -2.313917   -0.316845
     42          1           0       -2.204981   -1.613526    0.466283
     43          1           0       -2.092245   -1.826928   -1.277902
     44          6           0       -2.450058    4.312172    1.148251
     45          1           0       -3.120674    5.009920    0.654751
     46          1           0       -2.876410    3.309160    1.117458
     47          1           0       -2.261142    4.620049    2.174395
     48          6           0       -1.407477    3.954350   -1.018156
     49          1           0       -0.474435    4.029813   -1.567611
     50          1           0       -1.812930    2.946227   -1.096553
     51          1           0       -2.136009    4.665639   -1.397515
     52          6           0       -0.506807    5.630952    0.481698
     53          1           0       -0.368169    5.907512    1.524089
     54          1           0        0.456543    5.583476   -0.019174
     55          1           0       -1.151225    6.354525   -0.010884
     56          6           0       -4.322149   -2.781144   -0.358911
     57          1           0       -5.071818   -3.569577   -0.383399
     58          1           0       -4.462427   -2.141679    0.509754
     59          1           0       -4.355041   -2.176669   -1.265021
     60          6           0       -2.790683   -4.411855   -1.318869
     61          1           0       -3.575010   -5.161497   -1.247021
     62          1           0       -1.815905   -4.879694   -1.217807
     63          1           0       -2.859312   -3.893529   -2.271886
     64          6           0       -2.890445   -4.093939    1.094959
     65          1           0       -1.910124   -4.549543    1.200965
     66          1           0       -3.049485   -3.337698    1.859966
     67          1           0       -3.668544   -4.851926    1.148626
     68          7           0       -1.146639    4.294248    0.415314
     69          7           0       -2.975020   -3.422932   -0.229975
     70          6           0       -2.307724    0.828429    0.000397
     71          8           0       -1.258191    0.412486    0.605186
     72          8           0       -3.340443    1.214261    0.660817
     73          8           0       -2.310662    0.894930   -1.288380
     74          1           0        5.143187    0.476386    0.910856
     75          1           0        6.171441   -0.126387   -0.373633
     76          1           0        5.563655   -2.373885    0.566261
     77          1           0        4.239599   -1.867796    1.592016
     78          8           0       -0.198342   -0.307696   -2.454864
     79          1           0       -0.983577    0.153369   -2.077251
     80          1           0        0.259777   -0.612113   -1.670131
     81          8           0       -4.608312   -0.165283   -2.218618
     82          1           0       -5.271661    0.295455   -1.703243
     83          1           0       -3.764319    0.244483   -1.919171
     84          8           0       -3.823638   -1.004255    2.262046
     85          1           0       -3.802524   -0.178195    1.735972
     86          1           0       -3.003494   -0.929648    2.771004
     87          8           0       -1.198001   -0.350578    3.099351
     88          1           0       -1.226988    0.026298    2.171519
     89          1           0       -1.306654    0.392170    3.690749
     90          8           0       -4.641234    2.955287   -0.978347
     91          1           0       -4.379251    2.632308   -1.841298
     92          1           0       -4.253071    2.284756   -0.371099
 ---------------------------------------------------------------------

 The electronic state is 1-A.
 Alpha  occ. eigenvalues --  -19.20496 -19.18814 -19.18772 -19.18479 -19.18153
 Alpha  occ. eigenvalues --  -19.15485 -19.15346 -19.15206 -14.57750 -14.57022
 Alpha  occ. eigenvalues --  -10.36297 -10.35805 -10.34914 -10.34055 -10.33962
 Alpha  occ. eigenvalues --  -10.33351 -10.32673 -10.32509 -10.31831 -10.29972
 Alpha  occ. eigenvalues --  -10.29528 -10.29527 -10.29519 -10.29365 -10.29197
 Alpha  occ. eigenvalues --  -10.29141 -10.28799 -10.28697 -10.28351 -10.28227
 Alpha  occ. eigenvalues --  -10.28100 -10.27904 -10.27823 -10.27748 -10.27650
 Alpha  occ. eigenvalues --  -10.27252 -10.27133 -10.27012  -1.13868  -1.13319
 Alpha  occ. eigenvalues --   -1.12857  -1.07119  -1.05440  -1.05173  -1.04932
 Alpha  occ. eigenvalues --   -1.04740  -1.00035  -0.99842  -0.97434  -0.97177
 Alpha  occ. eigenvalues --   -0.92899  -0.91725  -0.88447  -0.87274  -0.86909
 Alpha  occ. eigenvalues --   -0.86646  -0.85715  -0.85266  -0.84889  -0.84769
 Alpha  occ. eigenvalues --   -0.84403  -0.81204  -0.80733  -0.77718  -0.74372
 Alpha  occ. eigenvalues --   -0.73793  -0.71691  -0.71036  -0.70715  -0.69688
 Alpha  occ. eigenvalues --   -0.68524  -0.66027  -0.65590  -0.63060  -0.62909
 Alpha  occ. eigenvalues --   -0.62510  -0.62358  -0.62283  -0.61802  -0.59828
 Alpha  occ. eigenvalues --   -0.59287  -0.58586  -0.57469  -0.56987  -0.56779
 Alpha  occ. eigenvalues --   -0.56390  -0.56008  -0.55778  -0.55727  -0.54755
 Alpha  occ. eigenvalues --   -0.54326  -0.53632  -0.53469  -0.53287  -0.53109
 Alpha  occ. eigenvalues --   -0.52989  -0.52370  -0.51821  -0.51608  -0.51191
 Alpha  occ. eigenvalues --   -0.50863  -0.50634  -0.50484  -0.50302  -0.50087
 Alpha  occ. eigenvalues --   -0.50049  -0.49853  -0.49685  -0.49384  -0.49258
 Alpha  occ. eigenvalues --   -0.49043  -0.48728  -0.48413  -0.48071  -0.47502
 Alpha  occ. eigenvalues --   -0.47280  -0.46854  -0.46245  -0.45749  -0.45407
 Alpha  occ. eigenvalues --   -0.44658  -0.44602  -0.44461  -0.44220  -0.43653
 Alpha  occ. eigenvalues --   -0.43359  -0.42919  -0.42783  -0.42012  -0.41825
 Alpha  occ. eigenvalues --   -0.41558  -0.40684  -0.40525  -0.40119  -0.39687
 Alpha  occ. eigenvalues --   -0.39300  -0.36259  -0.35035  -0.34995  -0.34625
 Alpha  occ. eigenvalues --   -0.34508  -0.33306  -0.32963  -0.32745  -0.32281
 Alpha  occ. eigenvalues --   -0.32083  -0.31989  -0.31216  -0.30924  -0.26898
 Alpha virt. eigenvalues --    0.03928   0.03980   0.04161   0.04910   0.05220
 Alpha virt. eigenvalues --    0.05458   0.05671   0.06078   0.06344   0.06724
 Alpha virt. eigenvalues --    0.06837   0.07279   0.07465   0.07710   0.08396

 Mulliken charges:
               1
     1  C   -0.520547
     2  C    0.078113
     3  H    0.124460
     4  H    0.120411
     5  H    0.128663
     6  C   -0.714087
     7  H    0.112653
     8  C    0.295989
     9  H    0.126856
    10  H    0.177204
    11  C   -0.727410
    12  C    0.244401
    13  H    0.121544
    14  C   -0.509783
    15  H    0.135764
    16  H    0.128068
    17  H    0.129681
    18  C    0.415770
    19  C   -0.369995
    20  C   -0.246573
    21  C   -0.157178
    22  H    0.127496
    23  C   -0.353698
    24  H    0.119447
    25  C    0.005749
    26  H    0.191799
    27  H    0.160258
    28  C    0.520025
    29  C   -0.425058
    30  C   -0.424708
    31  C   -0.205893
    32  H    0.120456
    33  C   -0.115173
    34  H    0.168178
    35  C    0.031190
    36  H    0.118830
    37  H    0.190666
    38  C   -0.205916
    39  H    0.205115
    40  H    0.159766
    41  C   -0.345081
    42  H    0.131107
    43  H    0.191051
    44  C   -0.213852
    45  H    0.174248
    46  H    0.228699
    47  H    0.140544
    48  C   -0.295356
    49  H    0.177867
    50  H    0.217252
    51  H    0.180899
    52  C   -0.181045
    53  H    0.155899
    54  H    0.179300
    55  H    0.159581
    56  C   -0.222120
    57  H    0.155262
    58  H    0.217101
    59  H    0.209052
    60  C   -0.188890
    61  H    0.156292
    62  H    0.174429
    63  H    0.181547
    64  C   -0.261660
    65  H    0.175202
    66  H    0.208793
    67  H    0.153889
    68  N   -0.201079
    69  N    0.082210
    70  C   -0.098911
    71  O   -0.562750
    72  O   -0.606238
    73  O   -0.655823
    74  H    0.143141
    75  H    0.118409
    76  H    0.122940
    77  H    0.146625
    78  O   -0.525109
    79  H    0.367165
    80  H    0.247198
    81  O   -0.553237
    82  H    0.216894
    83  H    0.339778
    84  O   -0.540047
    85  H    0.290979
    86  H    0.282584
    87  O   -0.684580
    88  H    0.456012
    89  H    0.253351
    90  O   -0.551095
    91  H    0.225740
    92  H    0.343302
 Sum of Mulliken charges =  -0.00000

 Dipole moment (field-independent basis, Debye):
    X=              5.7445    Y=              0.1300    Z=              2.6442  Tot=              6.3252
 Quadrupole moment (field-independent basis, Debye-Ang):
   XX=           -256.5950   YY=           -157.2505   ZZ=           -251.1790
   XY=             23.6931   XZ=             -2.7406   YZ=             18.0315

 Normal termination of Gaussian 16 at Sun Mar  3 07:16:48 2024.
