 Gaussian 16, Revision A.03,
 Gaussian 16:  ES64L-G16RevA.03 25-Dec-2016

 ----------------------------------------------------------------
 #p opt=readfc wb97xd/6-311+g(2d,2p) guess=read geom=connectivity
 ----------------------------------------------------------------

 --------
 Required
 --------
 Symbolic Z-matrix:
 Charge =  0 Multiplicity = 1

 SCF Done:  E(RwB97XD) =  -1963.83272024     A.U. after   10 cycles
 SCF Done:  E(RwB97XD) =  -1963.82268310     A.U. after   13 cycles
 SCF Done:  E(RwB97XD) =  -1963.82939897     A.U. after   12 cycles
 SCF Done:  E(RwB97XD) =  -1963.83272143     A.U. after    7 cycles
 SCF Done:  E(RwB97XD) =  -1963.83205627     A.U. after   12 cycles
 SCF Done:  E(RwB97XD) =  -1963.83255391     A.U. after   11 cycles
 SCF Done:  E(RwB97XD) =  -1963.83272373     A.U. after    6 cycles
 SCF Done:  E(RwB97XD) =  -1963.82825506     A.U. after   12 cycles
 SCF Done:  E(RwB97XD) =  -1963.83262801     A.U. after   11 cycles
 SCF Done:  E(RwB97XD) =  -1963.83272627     A.U. after    9 cycles
 SCF Done:  E(RwB97XD) =  -1963.83270597     A.U. after   10 cycles
 SCF Done:  E(RwB97XD) =  -1963.83273291     A.U. after   11 cycles
 SCF Done:  E(RwB97XD) =  -1963.83273378     A.U. after    9 cycles
 SCF Done:  E(RwB97XD) =  -1963.83273426     A.U. after    8 cycles
 SCF Done:  E(RwB97XD) =  -1963.83271072     A.U. after    8 cycles
 SCF Done:  E(RwB97XD) =  -1963.83271096     A.U. after    8 cycles
 SCF Done:  E(RwB97XD) =  -1963.83271110     A.U. after    7 cycles
 SCF Done:  E(RwB97XD) =  -1963.83271119     A.U. after    7 cycles
 SCF Done:  E(RwB97XD) =  -1963.83271091     A.U. after    8 cycles
 SCF Done:  E(RwB97XD) =  -1963.83271118     A.U. after    8 cycles
 Optimization completed.
    -- Stationary point found.

                         Standard orientation:
 ---------------------------------------------------------------------
 Center     Atomic      Atomic             Coordinates (Angstroms)
 Number     Number       Type             X           Y           Z
 ---------------------------------------------------------------------
      1          6           0       -6.200399    2.237649   -0.260041
      2          6           0       -5.137907    1.197300   -0.621481
      3          1           0       -6.118014    3.120815   -0.893938
      4          1           0       -7.201245    1.821037   -0.381555
      5          1           0       -6.100069    2.559740    0.777864
      6          6           0       -5.260889   -0.050027    0.268354
      7          1           0       -5.313324    0.883823   -1.654664
      8          6           0       -4.343569   -1.196846   -0.142033
      9          1           0       -4.605188   -1.518321   -1.156198
     10          1           0       -3.310677   -0.846269   -0.191926
     11          6           0       -4.429525   -2.387546    0.806638
     12          6           0       -3.684579   -3.637300    0.312983
     13          1           0       -4.113345   -3.905547   -0.657192
     14          6           0       -3.909526   -4.816732    1.261370
     15          1           0       -3.389707   -5.708659    0.910750
     16          1           0       -3.549291   -4.592115    2.266384
     17          1           0       -4.973032   -5.047727    1.336795
     18          6           0       -3.737447    1.769299   -0.556399
     19          6           0       -3.236879    2.289698    0.635747
     20          6           0       -2.887157    1.715092   -1.654721
     21          6           0       -1.925495    2.717363    0.730338
     22          1           0       -3.863265    2.320437    1.517975
     23          6           0       -1.571467    2.145063   -1.565844
     24          1           0       -3.242805    1.285887   -2.583004
     25          6           0       -1.075303    2.652967   -0.371729
     26          1           0       -1.541330    3.050927    1.684907
     27          1           0       -0.906406    2.011751   -2.410060
     28          6           0       -2.213014   -3.360163    0.082940
     29          6           0       -1.335447   -3.161167    1.146987
     30          6           0       -1.712601   -3.239487   -1.209597
     31          6           0        0.001278   -2.879118    0.924817
     32          1           0       -1.699562   -3.193352    2.165310
     33          6           0       -0.378799   -2.941490   -1.436799
     34          1           0       -2.384526   -3.348877   -2.051867
     35          6           0        0.498999   -2.784686   -0.370769
     36          1           0        0.654283   -2.678366    1.764454
     37          1           0       -0.028762   -2.775401   -2.447706
     38          6           0        1.927080   -2.406875   -0.610931
     39          1           0        2.017233   -1.795778   -1.507134
     40          1           0        2.337422   -1.868478    0.235157
     41          6           0        0.384776    2.953350   -0.230736
     42          1           0        0.736697    2.632761    0.743081
     43          1           0        0.952082    2.453180   -1.004983
     44          6           0        4.223362   -3.005596   -1.113842
     45          1           0        4.935812   -3.818738   -1.232827
     46          1           0        4.146216   -2.433572   -2.034451
     47          1           0        4.528697   -2.350096   -0.304293
     48          6           0        2.450554   -4.455886   -1.916502
     49          1           0        1.490829   -4.899103   -1.670387
     50          1           0        2.354336   -3.851886   -2.815369
     51          1           0        3.198295   -5.231733   -2.063545
     52          6           0        2.977893   -4.370947    0.463107
     53          1           0        3.308534   -3.696493    1.253800
     54          1           0        1.996428   -4.777539    0.689537
     55          1           0        3.692687   -5.177371    0.313340
     56          6           0        2.271263    4.466644   -0.138652
     57          1           0        2.591727    5.504487   -0.199831
     58          1           0        2.531177    4.045243    0.829591
     59          1           0        2.728531    3.872508   -0.926143
     60          6           0        0.435954    4.962343   -1.654059
     61          1           0        0.758781    5.999573   -1.708523
     62          1           0       -0.639765    4.893990   -1.790568
     63          1           0        0.947269    4.366887   -2.407115
     64          6           0        0.143210    5.210080    0.760822
     65          1           0       -0.930650    5.221274    0.600054
     66          1           0        0.378431    4.734739    1.711894
     67          1           0        0.536339    6.223637    0.728510
     68          7           0        2.884645   -3.582809   -0.799079
     69          7           0        0.787790    4.418285   -0.319547
     70          6           0        1.991593    0.459159    0.502172
     71          8           0        0.899780    0.208042   -0.077068
     72          8           0        2.132100    0.313036    1.773461
     73          8           0        3.020755    0.889421   -0.185528
     74          1           0       -4.037473   -2.098655    1.786858
     75          1           0       -5.479034   -2.657334    0.960675
     76          1           0       -6.300288   -0.391134    0.246734
     77          1           0       -5.052735    0.230113    1.305789
     78          8           0        2.781080    2.114224   -2.481854
     79          1           0        3.638114    2.082855   -2.904834
     80          1           0        2.882150    1.594419   -1.631708
     81          8           0        4.324769    2.566689    1.548168
     82          1           0        4.160773    2.163409    2.401146
     83          1           0        3.849159    1.973624    0.929547
     84          8           0        0.909327    2.655961    2.953349
     85          1           0        1.634602    2.071379    2.687764
     86          1           0        0.184213    2.014284    3.008521
     87          8           0       -0.505071    0.184287    2.531704
     88          1           0       -0.826813    0.189663    1.625954
     89          1           0        0.454049    0.056263    2.369790
     90          8           0        5.419297   -0.256016    0.266179
     91          1           0        4.536898    0.142006    0.078520
     92          1           0        5.896073    0.456262    0.695553
     93          8           0        3.878357   -1.783471    2.136253
     94          1           0        4.621182   -1.351440    1.692896
     95          1           0        3.221638   -1.059624    2.175214
     96          8           0        0.896068   -0.119520   -2.772528
     97          1           0        1.523792    0.566207   -3.024665
     98          1           0        0.828363    0.008020   -1.799434
 ---------------------------------------------------------------------

 The electronic state is 1-A.
 Alpha  occ. eigenvalues --  -19.21993 -19.21347 -19.20338 -19.19937 -19.19458
 Alpha  occ. eigenvalues --  -19.18882 -19.18458 -19.17195 -19.16026 -19.15371
 Alpha  occ. eigenvalues --  -14.57626 -14.57048 -10.37158 -10.35450 -10.34676
 Alpha  occ. eigenvalues --  -10.34102 -10.34091 -10.33732 -10.32881 -10.32662
 Alpha  occ. eigenvalues --  -10.32223 -10.29393 -10.29195 -10.29158 -10.28914
 Alpha  occ. eigenvalues --  -10.28902 -10.28722 -10.28543 -10.28306 -10.28266
 Alpha  occ. eigenvalues --  -10.28175 -10.28103 -10.28052 -10.27932 -10.27719
 Alpha  occ. eigenvalues --  -10.27312 -10.27146 -10.26982 -10.26745 -10.26622
 Alpha  occ. eigenvalues --   -1.13962  -1.13706  -1.13407  -1.08404  -1.08087
 Alpha  occ. eigenvalues --   -1.07189  -1.06481  -1.05951  -1.05262  -1.04953
 Alpha  occ. eigenvalues --   -1.00946  -1.00587  -0.97093  -0.96829  -0.92565
 Alpha  occ. eigenvalues --   -0.91391  -0.88041  -0.87195  -0.86769  -0.86646
 Alpha  occ. eigenvalues --   -0.86254  -0.85624  -0.84695  -0.84448  -0.84116
 Alpha  occ. eigenvalues --   -0.80847  -0.80658  -0.77373  -0.74228  -0.73790
 Alpha  occ. eigenvalues --   -0.71282  -0.70875  -0.70460  -0.69457  -0.68262
 Alpha  occ. eigenvalues --   -0.65638  -0.65235  -0.63053  -0.62941  -0.62597
 Alpha  occ. eigenvalues --   -0.62444  -0.62373  -0.61981  -0.61087  -0.59490
 Alpha  occ. eigenvalues --   -0.59081  -0.58448  -0.57845  -0.57446  -0.57114
 Alpha  occ. eigenvalues --   -0.56787  -0.56366  -0.56195  -0.55860  -0.55238
 Alpha  occ. eigenvalues --   -0.54491  -0.54184  -0.53729  -0.53689  -0.53294
 Alpha  occ. eigenvalues --   -0.53244  -0.53052  -0.52049  -0.51466  -0.51294
 Alpha  occ. eigenvalues --   -0.51066  -0.51018  -0.50685  -0.50632  -0.50432
 Alpha  occ. eigenvalues --   -0.50256  -0.50081  -0.49953  -0.49894  -0.49770
 Alpha  occ. eigenvalues --   -0.49674  -0.49449  -0.49089  -0.48862  -0.48311
 Alpha  occ. eigenvalues --   -0.47787  -0.47028  -0.46872  -0.46557  -0.45821
 Alpha  occ. eigenvalues --   -0.45482  -0.45423  -0.44998  -0.44845  -0.44598
 Alpha  occ. eigenvalues --   -0.44382  -0.44245  -0.43817  -0.43439  -0.43150
 Alpha  occ. eigenvalues --   -0.42926  -0.42644  -0.42421  -0.41376  -0.40363
 Alpha  occ. eigenvalues --   -0.40270  -0.39885  -0.39376  -0.38980  -0.37749
 Alpha  occ. eigenvalues --   -0.37228  -0.36210  -0.35943  -0.35639  -0.35064
 Alpha  occ. eigenvalues --   -0.34742  -0.33985  -0.33255  -0.32857  -0.32703
 Alpha  occ. eigenvalues --   -0.32251  -0.32049  -0.31756  -0.30769  -0.27784
 Alpha virt. eigenvalues --    0.04100   0.04328   0.04709   0.05067   0.05393
 Alpha virt. eigenvalues --    0.05675   0.05897   0.06243   0.06564   0.06820
 Alpha virt. eigenvalues --    0.06928   0.07384   0.07692   0.07917   0.08680

 Mulliken charges:
               1
     1  C   -0.497777
     2  C    0.127274
     3  H    0.125675
     4  H    0.124039
     5  H    0.126288
     6  C   -0.668339
     7  H    0.109651
     8  C    0.329796
     9  H    0.119703
    10  H    0.164073
    11  C   -0.706829
    12  C    0.082918
    13  H    0.114756
    14  C   -0.516331
    15  H    0.124825
    16  H    0.129812
    17  H    0.124088
    18  C    0.512092
    19  C   -0.369966
    20  C   -0.244406
    21  C   -0.276486
    22  H    0.125750
    23  C   -0.262809
    24  H    0.121130
    25  C    0.174368
    26  H    0.155429
    27  H    0.155934
    28  C    0.456756
    29  C   -0.401451
    30  C   -0.335040
    31  C   -0.306252
    32  H    0.131739
    33  C   -0.310095
    34  H    0.119388
    35  C    0.344450
    36  H    0.179492
    37  H    0.155372
    38  C   -0.534042
    39  H    0.203338
    40  H    0.174074
    41  C   -0.750421
    42  H    0.167279
    43  H    0.166380
    44  C   -0.169765
    45  H    0.156136
    46  H    0.176586
    47  H    0.198191
    48  C   -0.180089
    49  H    0.182332
    50  H    0.180510
    51  H    0.157695
    52  C   -0.232759
    53  H    0.226612
    54  H    0.171901
    55  H    0.150005
    56  C   -0.208347
    57  H    0.157257
    58  H    0.228570
    59  H    0.210686
    60  C   -0.214913
    61  H    0.152549
    62  H    0.171894
    63  H    0.203115
    64  C   -0.215954
    65  H    0.168808
    66  H    0.214825
    67  H    0.154159
    68  N    0.126506
    69  N    0.178112
    70  C   -0.222318
    71  O   -0.654317
    72  O   -0.684353
    73  O   -0.763673
    74  H    0.150795
    75  H    0.119208
    76  H    0.123725
    77  H    0.139413
    78  O   -0.686381
    79  H    0.267127
    80  H    0.466595
    81  O   -0.592540
    82  H    0.251024
    83  H    0.424428
    84  O   -0.486688
    85  H    0.285475
    86  H    0.273582
    87  O   -0.551244
    88  H    0.308548
    89  H    0.361774
    90  O   -0.629158
    91  H    0.430190
    92  H    0.256480
    93  O   -0.530149
    94  H    0.275817
    95  H    0.290970
    96  O   -0.580586
    97  H    0.275309
    98  H    0.370701
 Sum of Mulliken charges =  -0.00000

 Dipole moment (field-independent basis, Debye):
    X=             -1.9106    Y=             -1.0699    Z=             -7.0278  Tot=              7.3611
 Quadrupole moment (field-independent basis, Debye-Ang):
   XX=           -246.4587   YY=           -177.0780   ZZ=           -267.9182
   XY=            -19.3894   XZ=            -19.2691   YZ=              1.3691

 Normal termination of Gaussian 16 at Tue Feb 27 02:09:36 2024.
