 Gaussian 16, Revision A.03,
 Gaussian 16:  ES64L-G16RevA.03 25-Dec-2016

 ----------------------------------------------
 #p opt=readfc wb97xd/6-311+g(2d,2p) guess=read
 ----------------------------------------------

 --------
 Required
 --------
 Symbolic Z-matrix:
 Charge =  0 Multiplicity = 1

 SCF Done:  E(RwB97XD) =  -1581.52780873     A.U. after    9 cycles
 SCF Done:  E(RwB97XD) =  -1581.51975601     A.U. after   14 cycles
 SCF Done:  E(RwB97XD) =  -1581.52817161     A.U. after   12 cycles
 SCF Done:  E(RwB97XD) =  -1581.52831727     A.U. after   12 cycles
 SCF Done:  E(RwB97XD) =  -1581.52911008     A.U. after   12 cycles
 SCF Done:  E(RwB97XD) =  -1581.52877849     A.U. after   11 cycles
 SCF Done:  E(RwB97XD) =  -1581.52953302     A.U. after   11 cycles
 SCF Done:  E(RwB97XD) =  -1581.52990375     A.U. after   11 cycles
 SCF Done:  E(RwB97XD) =  -1581.53017473     A.U. after   12 cycles
 SCF Done:  E(RwB97XD) =  -1581.53056602     A.U. after   12 cycles
 SCF Done:  E(RwB97XD) =  -1581.53538883     A.U. after   10 cycles
 SCF Done:  E(RwB97XD) =  -1581.53539041     A.U. after   10 cycles
 SCF Done:  E(RwB97XD) =  -1581.53539117     A.U. after   10 cycles
 SCF Done:  E(RwB97XD) =  -1581.53539192     A.U. after    8 cycles
 SCF Done:  E(RwB97XD) =  -1581.53539274     A.U. after    8 cycles
 SCF Done:  E(RwB97XD) =  -1581.53539326     A.U. after    8 cycles
 SCF Done:  E(RwB97XD) =  -1581.53539379     A.U. after    8 cycles
 SCF Done:  E(RwB97XD) =  -1581.53539415     A.U. after    9 cycles
 SCF Done:  E(RwB97XD) =  -1581.53539434     A.U. after    9 cycles
 SCF Done:  E(RwB97XD) =  -1581.53539442     A.U. after    8 cycles
 Optimization completed.
    -- Stationary point found.

                         Standard orientation:
 ---------------------------------------------------------------------
 Center     Atomic      Atomic             Coordinates (Angstroms)
 Number     Number       Type             X           Y           Z
 ---------------------------------------------------------------------
      1          6           0       -3.399525   -3.904720   -2.164736
      2          6           0       -3.259010   -3.177248   -0.826454
      3          1           0       -2.713544   -4.749368   -2.229686
      4          1           0       -4.416504   -4.279086   -2.287871
      5          1           0       -3.191685   -3.238507   -3.003610
      6          6           0       -4.188298   -1.954156   -0.761982
      7          1           0       -3.562310   -3.870899   -0.036913
      8          6           0       -4.351781   -1.378613    0.648918
      9          1           0       -5.216459   -1.837978    1.133599
     10          1           0       -3.486908   -1.643187    1.261022
     11          6           0       -4.507008    0.147746    0.682648
     12          6           0       -4.895373    0.632936    2.085668
     13          6           0       -5.128014    2.136664    2.170124
     14          1           0       -5.441616    2.429533    3.172047
     15          1           0       -4.220028    2.689558    1.927068
     16          1           0       -5.905462    2.450979    1.470612
     17          6           0       -1.826707   -2.768510   -0.541758
     18          6           0       -1.082430   -2.044879   -1.471284
     19          6           0       -1.232939   -3.055211    0.683276
     20          6           0        0.217621   -1.654109   -1.198223
     21          1           0       -1.525436   -1.766645   -2.418791
     22          6           0        0.061686   -2.648338    0.966365
     23          1           0       -1.797351   -3.595225    1.433722
     24          6           0        0.817444   -1.966150    0.018901
     25          1           0        0.771648   -1.076732   -1.928116
     26          1           0        0.488281   -2.854762    1.939976
     27          6           0       -3.244962    0.818521    0.178406
     28          6           0       -3.255644    1.580628   -0.983577
     29          6           0       -2.032909    0.660743    0.850336
     30          6           0       -2.092435    2.170439   -1.457834
     31          1           0       -4.182280    1.705901   -1.530282
     32          6           0       -0.867946    1.245712    0.387362
     33          1           0       -1.987816    0.054479    1.746179
     34          6           0       -0.891867    2.019055   -0.773970
     35          1           0       -2.121274    2.741862   -2.378795
     36          1           0        0.077931    1.114041    0.911665
     37          6           0        0.381844    2.616521   -1.287190
     38          1           0        1.258145    2.014818   -1.007060
     39          1           0        0.350487    2.744808   -2.369508
     40          6           0        2.218178   -1.527527    0.324870
     41          1           0        2.487180   -0.642619   -0.247085
     42          1           0        2.349634   -1.301779    1.382711
     43          6           0        2.070737    4.356213   -1.218294
     44          1           0        2.330366    5.338961   -0.831434
     45          1           0        2.752258    3.577465   -0.863379
     46          1           0        2.055748    4.375865   -2.306126
     47          6           0        0.713208    3.987250    0.762932
     48          1           0       -0.308761    3.866691    1.111438
     49          1           0        1.328598    3.140839    1.110222
     50          1           0        1.109031    4.942860    1.100097
     51          6           0       -0.277076    5.005656   -1.212931
     52          1           0       -0.250077    5.041021   -2.299778
     53          1           0       -1.270244    4.722218   -0.876126
     54          1           0       -0.010948    5.977931   -0.804888
     55          6           0        4.595197   -2.062544    0.529259
     56          1           0        5.379434   -2.726019    0.170117
     57          1           0        4.740104   -1.035302    0.202473
     58          1           0        4.538546   -2.070276    1.613958
     59          6           0        2.991687   -3.868939    0.631145
     60          1           0        2.865458   -3.707602    1.698785
     61          1           0        2.086066   -4.288156    0.203655
     62          1           0        3.831911   -4.536279    0.454945
     63          6           0        3.403379   -2.728041   -1.483326
     64          1           0        2.441680   -3.045922   -1.877163
     65          1           0        3.712435   -1.768831   -1.903337
     66          1           0        4.153612   -3.489754   -1.686043
     67          7           0        0.701878    4.003225   -0.733701
     68          7           0        3.289558   -2.564345   -0.008239
     69          1           0       -5.167659   -2.228703   -1.161050
     70          1           0       -3.787206   -1.191154   -1.433875
     71          1           0       -4.116972    0.339999    2.795429
     72          1           0       -5.801566    0.104145    2.391311
     73          1           0       -5.320256    0.422215    0.002156
     74          6           0        3.110584    1.304669    0.873840
     75          8           0        2.092068    1.488320    1.621257
     76          8           0        4.181429    0.766459    1.301011
     77          8           0        3.026969    1.628765   -0.396133
     78          8           0        3.354129   -0.785493    3.260041
     79          1           0        2.605694   -0.272313    3.568574
     80          1           0        3.753988   -0.144911    2.602410
     81          8           0        4.444815    0.227651   -2.032966
     82          1           0        5.365504    0.415275   -1.856351
     83          1           0        3.947449    0.810156   -1.373960
 ---------------------------------------------------------------------

 The electronic state is 1-A.
 Alpha  occ. eigenvalues --  -19.17646 -19.16400 -19.12285 -19.11094 -19.11065
 Alpha  occ. eigenvalues --  -14.56462 -14.55866 -10.34958 -10.33856 -10.32414
 Alpha  occ. eigenvalues --  -10.32326 -10.32290 -10.32261 -10.31425 -10.30955
 Alpha  occ. eigenvalues --  -10.30444 -10.29998 -10.29935 -10.29763 -10.29636
 Alpha  occ. eigenvalues --  -10.29555 -10.29430 -10.29308 -10.29256 -10.29237
 Alpha  occ. eigenvalues --  -10.29098 -10.28988 -10.28816 -10.28149 -10.28101
 Alpha  occ. eigenvalues --  -10.28032 -10.27980 -10.27682 -10.27612 -10.26864
 Alpha  occ. eigenvalues --   -1.12614  -1.12012  -1.08705  -1.03877  -1.02734
 Alpha  occ. eigenvalues --   -0.97914  -0.97340  -0.96152  -0.95809  -0.93454
 Alpha  occ. eigenvalues --   -0.91638  -0.87821  -0.87149  -0.86078  -0.85888
 Alpha  occ. eigenvalues --   -0.85075  -0.85006  -0.84418  -0.84083  -0.83807
 Alpha  occ. eigenvalues --   -0.81487  -0.80500  -0.77720  -0.73623  -0.72971
 Alpha  occ. eigenvalues --   -0.71565  -0.71117  -0.71045  -0.69342  -0.69129
 Alpha  occ. eigenvalues --   -0.66407  -0.65816  -0.62139  -0.61906  -0.61738
 Alpha  occ. eigenvalues --   -0.61313  -0.61157  -0.60722  -0.59157  -0.58651
 Alpha  occ. eigenvalues --   -0.56889  -0.56305  -0.56117  -0.55187  -0.54733
 Alpha  occ. eigenvalues --   -0.54206  -0.53995  -0.53756  -0.53301  -0.53070
 Alpha  occ. eigenvalues --   -0.52644  -0.52542  -0.52089  -0.51860  -0.51624
 Alpha  occ. eigenvalues --   -0.51098  -0.50566  -0.50453  -0.49714  -0.49333
 Alpha  occ. eigenvalues --   -0.49135  -0.48942  -0.48643  -0.48307  -0.48082
 Alpha  occ. eigenvalues --   -0.48037  -0.47925  -0.47279  -0.47027  -0.46742
 Alpha  occ. eigenvalues --   -0.46514  -0.46081  -0.45600  -0.45231  -0.44481
 Alpha  occ. eigenvalues --   -0.44242  -0.44192  -0.43498  -0.43266  -0.43101
 Alpha  occ. eigenvalues --   -0.42804  -0.42137  -0.41314  -0.41216  -0.40954
 Alpha  occ. eigenvalues --   -0.40491  -0.40228  -0.39955  -0.39750  -0.34067
 Alpha  occ. eigenvalues --   -0.33881  -0.33158  -0.33072  -0.32494  -0.32040
 Alpha  occ. eigenvalues --   -0.29190  -0.28020  -0.27950  -0.26818  -0.22988
 Alpha virt. eigenvalues --    0.03741   0.03891   0.04083   0.04497   0.05021
 Alpha virt. eigenvalues --    0.05398   0.05432   0.05860   0.06135   0.06589
 Alpha virt. eigenvalues --    0.06821   0.07028   0.07582   0.07963   0.08099

 Mulliken charges:
               1
     1  C   -0.532598
     2  C    0.032244
     3  H    0.130125
     4  H    0.126237
     5  H    0.127399
     6  C   -0.292779
     7  H    0.113493
     8  C   -0.294030
     9  H    0.124242
    10  H    0.116486
    11  C    0.141151
    12  C   -0.187253
    13  C   -0.478439
    14  H    0.121737
    15  H    0.122306
    16  H    0.110413
    17  C    0.477817
    18  C   -0.298717
    19  C   -0.408713
    20  C   -0.326232
    21  H    0.122714
    22  C   -0.363922
    23  H    0.131166
    24  C    0.190135
    25  H    0.176849
    26  H    0.143104
    27  C    0.325358
    28  C   -0.343116
    29  C   -0.160860
    30  C   -0.275383
    31  H    0.129735
    32  C   -0.219200
    33  H    0.134847
    34  C   -0.045968
    35  H    0.132269
    36  H    0.226251
    37  C   -0.442324
    38  H    0.327335
    39  H    0.159031
    40  C   -0.478607
    41  H    0.147405
    42  H    0.240931
    43  C   -0.192692
    44  H    0.137550
    45  H    0.251183
    46  H    0.136092
    47  C   -0.316104
    48  H    0.150188
    49  H    0.274190
    50  H    0.146209
    51  C   -0.190959
    52  H    0.157044
    53  H    0.180487
    54  H    0.154129
    55  C   -0.254501
    56  H    0.150289
    57  H    0.214733
    58  H    0.204397
    59  C   -0.184364
    60  H    0.193195
    61  H    0.168128
    62  H    0.159976
    63  C   -0.259189
    64  H    0.164311
    65  H    0.249080
    66  H    0.143075
    67  N   -0.121676
    68  N    0.022106
    69  H    0.121642
    70  H    0.119898
    71  H    0.131143
    72  H    0.115039
    73  H    0.110949
    74  C    0.906286
    75  O   -0.772115
    76  O   -0.783782
    77  O   -0.870406
    78  O   -0.587516
    79  H    0.242888
    80  H    0.367167
    81  O   -0.701149
    82  H    0.234289
    83  H    0.446151
 Sum of Mulliken charges =  -0.00000

 Dipole moment (field-independent basis, Debye):
    X=             -8.0876    Y=             -0.7712    Z=             -6.0525  Tot=             10.1309
 Quadrupole moment (field-independent basis, Debye-Ang):
   XX=           -233.4904   YY=           -157.2311   ZZ=           -231.2690
   XY=            -20.7985   XZ=            -17.2751   YZ=            -12.3471

 Normal termination of Gaussian 16 at Sat Mar 30 23:00:38 2024.
