 Gaussian 16, Revision A.03,
 Gaussian 16:  ES64L-G16RevA.03 25-Dec-2016

 -----------------------------------------------------
 #p opt=calcfc wb97xd/6-311+g(2d,2p) geom=connectivity
 -----------------------------------------------------

 --------
 Required
 --------
 Symbolic Z-matrix:
 Charge =  0 Multiplicity = 1

 SCF Done:  E(RwB97XD) =  -1740.94238985     A.U. after   14 cycles

  Exact polarizability:   0.000   0.000   0.000   0.000   0.000   0.000
 Approx polarizability: 503.617 -26.079 440.649  -8.719 -19.435 493.491

 SCF Done:  E(RwB97XD) =  -1740.94407045     A.U. after   12 cycles
 SCF Done:  E(RwB97XD) =  -1740.94419734     A.U. after   12 cycles
 SCF Done:  E(RwB97XD) =  -1740.94419854     A.U. after   12 cycles
 SCF Done:  E(RwB97XD) =  -1740.94423059     A.U. after   11 cycles
 SCF Done:  E(RwB97XD) =  -1740.94424146     A.U. after   11 cycles
 SCF Done:  E(RwB97XD) =  -1740.94426788     A.U. after   13 cycles
 SCF Done:  E(RwB97XD) =  -1740.94427060     A.U. after   10 cycles
 SCF Done:  E(RwB97XD) =  -1740.94427212     A.U. after   11 cycles
 SCF Done:  E(RwB97XD) =  -1740.94427259     A.U. after    9 cycles
 SCF Done:  E(RwB97XD) =  -1740.94427273     A.U. after   10 cycles
 SCF Done:  E(RwB97XD) =  -1740.94427326     A.U. after    9 cycles
 SCF Done:  E(RwB97XD) =  -1740.94427349     A.U. after    9 cycles
 SCF Done:  E(RwB97XD) =  -1740.94427358     A.U. after    8 cycles
 SCF Done:  E(RwB97XD) =  -1740.94427361     A.U. after    8 cycles
 Optimization completed.
    -- Stationary point found.

                         Standard orientation:
 ---------------------------------------------------------------------
 Center     Atomic      Atomic             Coordinates (Angstroms)
 Number     Number       Type             X           Y           Z
 ---------------------------------------------------------------------
      1          6           0        2.734962   -5.138957   -1.237325
      2          6           0        3.608835   -4.319008   -0.295857
      3          1           0        2.962099   -6.201891   -1.154408
      4          1           0        1.676317   -5.001677   -1.015710
      5          1           0        2.895689   -4.841797   -2.275615
      6          6           0        3.399817   -2.799769   -0.417429
      7          1           0        3.424874   -4.624145    0.738412
      8          1           0        4.661018   -4.536015   -0.495200
      9          6           0        4.365020   -2.051659    0.521158
     10          1           0        3.651743   -2.519813   -1.445714
     11          1           0        3.972845   -2.072747    1.541934
     12          1           0        5.307597   -2.604509    0.552325
     13          6           0        4.702226   -0.603712    0.128029
     14          6           0        5.738391   -0.016136    1.097955
     15          1           0        5.166468   -0.639637   -0.863263
     16          1           0        5.304867    0.024829    2.101140
     17          1           0        6.585041   -0.704619    1.158297
     18          6           0        6.233613    1.368001    0.696358
     19          1           0        6.989902    1.731041    1.392291
     20          1           0        6.678115    1.349014   -0.300799
     21          1           0        5.416071    2.089451    0.680425
     22          6           0        3.477930    0.278754    0.014112
     23          6           0        3.133687    0.869536   -1.195120
     24          6           0        2.633373    0.477042    1.103165
     25          6           0        1.967225    1.608257   -1.322068
     26          1           0        3.767286    0.717342   -2.060606
     27          6           0        1.467348    1.210037    0.978516
     28          1           0        2.860436    0.007542    2.051984
     29          6           0        1.120063    1.797173   -0.236764
     30          1           0        1.693736    2.018667   -2.286477
     31          1           0        0.788024    1.293004    1.817229
     32          6           0        1.944925   -2.432351   -0.195506
     33          6           0        1.191357   -1.843529   -1.202692
     34          6           0        1.327595   -2.661420    1.032894
     35          6           0       -0.133085   -1.484294   -1.001202
     36          1           0        1.658871   -1.623669   -2.153771
     37          6           0        0.005111   -2.312393    1.238732
     38          1           0        1.891932   -3.097443    1.848195
     39          6           0       -0.750559   -1.743202    0.216727
     40          1           0       -0.680506   -0.958322   -1.776616
     41          1           0       -0.444075   -2.470804    2.211897
     42          6           0       -2.185324   -1.374778    0.431740
     43          1           0       -2.353785   -1.047168    1.450737
     44          1           0       -2.458487   -0.542625   -0.206458
     45          6           0       -0.201019    2.485652   -0.394793
     46          1           0       -0.529635    2.416600   -1.426782
     47          1           0       -0.973954    2.009678    0.232671
     48          6           0       -4.472981   -2.156857    0.927005
     49          1           0       -5.250711   -2.791289    0.500189
     50          6           0       -4.367139   -2.370590    2.423384
     51          1           0       -4.687320   -1.093905    0.753230
     52          6           0       -2.748224   -3.856230    0.507885
     53          6           0       -1.841535   -4.592012   -0.467811
     54          1           0       -2.263405   -3.764541    1.475260
     55          1           0       -3.657789   -4.438386    0.651476
     56          6           0       -3.565559   -2.442370   -1.339097
     57          6           0       -4.440070   -1.281901   -1.782114
     58          1           0       -2.615897   -2.436382   -1.870064
     59          1           0       -4.063807   -3.389462   -1.547731
     60          6           0       -1.733621    4.362423   -0.103622
     61          1           0       -1.794583    5.338100    0.380824
     62          6           0       -2.333201    4.413535   -1.494085
     63          1           0       -2.257418    3.614535    0.491410
     64          6           0        0.243431    4.247032    1.355130
     65          6           0       -0.627269    3.742800    2.491729
     66          1           0        1.234646    3.805485    1.406432
     67          1           0        0.357857    5.329827    1.416297
     68          6           0        0.510899    4.818747   -1.016788
     69          6           0        2.009642    4.951005   -0.792508
     70          1           0        0.309508    4.400306   -1.999344
     71          1           0        0.056796    5.808757   -0.980625
     72          7           0       -3.215162   -2.472223    0.131868
     73          7           0       -0.262289    3.970270   -0.038638
     74          1           0        2.244156    5.539254    0.091990
     75          1           0        2.420801    5.478769   -1.653085
     76          1           0        2.511693    3.991444   -0.718368
     77          1           0       -0.021190    3.747201    3.397954
     78          1           0       -1.028381    2.743392    2.317230
     79          1           0       -1.483790    4.392656    2.660189
     80          1           0       -2.246462    3.458452   -2.005060
     81          1           0       -1.930199    5.217535   -2.110600
     82          1           0       -3.400407    4.585442   -1.364644
     83          1           0       -5.473913   -1.416784   -1.471616
     84          1           0       -4.418223   -1.265076   -2.872386
     85          1           0       -4.106524   -0.306092   -1.416039
     86          1           0       -4.215694   -3.408917    2.718794
     87          1           0       -5.311008   -2.033208    2.848935
     88          1           0       -3.597447   -1.743864    2.869433
     89          1           0       -1.553695   -5.529138    0.009206
     90          1           0       -0.933926   -4.045072   -0.701889
     91          1           0       -2.351161   -4.842276   -1.395718
     92          6           0       -3.404327    1.285961    0.641548
     93          8           0       -2.384235    1.555632    1.383203
     94          8           0       -3.319473    1.538612   -0.644201
     95          8           0       -4.442473    0.739483    1.107956
     96          8           0       -1.775557    0.887151   -2.557440
     97          1           0       -2.396950    0.877054   -3.283730
     98          1           0       -2.341203    1.143806   -1.750530
 ---------------------------------------------------------------------

 The electronic state is 1-A.
 Alpha  occ. eigenvalues --  -19.18264 -19.09777 -19.09257 -19.08454 -14.54825
 Alpha  occ. eigenvalues --  -14.54821 -10.34462 -10.34394 -10.33289 -10.33133
 Alpha  occ. eigenvalues --  -10.31411 -10.30911 -10.30741 -10.30248 -10.29616
 Alpha  occ. eigenvalues --  -10.29464 -10.29447 -10.29441 -10.29318 -10.29303
 Alpha  occ. eigenvalues --  -10.29168 -10.29146 -10.29010 -10.28666 -10.28604
 Alpha  occ. eigenvalues --  -10.28492 -10.28445 -10.28439 -10.28392 -10.28328
 Alpha  occ. eigenvalues --  -10.28324 -10.28264 -10.28000 -10.27611 -10.27054
 Alpha  occ. eigenvalues --  -10.27047 -10.26982 -10.26109 -10.25921 -10.25447
 Alpha  occ. eigenvalues --   -1.10634  -1.10550  -1.06221  -1.04299  -0.97705
 Alpha  occ. eigenvalues --   -0.96717  -0.93801  -0.93385  -0.93253  -0.90897
 Alpha  occ. eigenvalues --   -0.89463  -0.89312  -0.87917  -0.87718  -0.87375
 Alpha  occ. eigenvalues --   -0.86926  -0.85029  -0.84670  -0.84395  -0.83675
 Alpha  occ. eigenvalues --   -0.83244  -0.80052  -0.78688  -0.76619  -0.75388
 Alpha  occ. eigenvalues --   -0.75029  -0.73922  -0.73852  -0.71860  -0.71357
 Alpha  occ. eigenvalues --   -0.70864  -0.70319  -0.69898  -0.66692  -0.66643
 Alpha  occ. eigenvalues --   -0.65613  -0.65591  -0.61263  -0.60775  -0.60551
 Alpha  occ. eigenvalues --   -0.60310  -0.59978  -0.59699  -0.59090  -0.57869
 Alpha  occ. eigenvalues --   -0.56841  -0.56556  -0.56006  -0.55351  -0.54734
 Alpha  occ. eigenvalues --   -0.54717  -0.54469  -0.53860  -0.53705  -0.53521
 Alpha  occ. eigenvalues --   -0.53147  -0.52854  -0.52473  -0.51798  -0.51570
 Alpha  occ. eigenvalues --   -0.51200  -0.50582  -0.50357  -0.49760  -0.49648
 Alpha  occ. eigenvalues --   -0.49492  -0.49079  -0.48391  -0.47965  -0.47664
 Alpha  occ. eigenvalues --   -0.47549  -0.47215  -0.47055  -0.46868  -0.46650
 Alpha  occ. eigenvalues --   -0.46404  -0.46213  -0.46081  -0.45825  -0.45680
 Alpha  occ. eigenvalues --   -0.45113  -0.45078  -0.44539  -0.44352  -0.44073
 Alpha  occ. eigenvalues --   -0.43774  -0.43590  -0.43454  -0.43312  -0.43043
 Alpha  occ. eigenvalues --   -0.42739  -0.42623  -0.42331  -0.42158  -0.42073
 Alpha  occ. eigenvalues --   -0.41794  -0.41134  -0.40760  -0.40608  -0.40384
 Alpha  occ. eigenvalues --   -0.39857  -0.39692  -0.39421  -0.38830  -0.34403
 Alpha  occ. eigenvalues --   -0.33983  -0.33214  -0.32331  -0.30489  -0.26901
 Alpha  occ. eigenvalues --   -0.26036  -0.25608  -0.24590  -0.20256
 Alpha virt. eigenvalues --    0.03933   0.04501   0.04571   0.04634   0.05229
 Alpha virt. eigenvalues --    0.05367   0.05758   0.05934   0.06183   0.06289
 Alpha virt. eigenvalues --    0.06570   0.06794   0.06994   0.07718   0.08326

 Mulliken charges:
               1
     1  C   -0.432053
     2  C   -0.257108
     3  H    0.123435
     4  H    0.122904
     5  H    0.117090
     6  C    0.220966
     7  H    0.128548
     8  H    0.120600
     9  C   -0.610222
    10  H    0.104142
    11  H    0.143693
    12  H    0.123106
    13  C    0.095102
    14  C   -0.225507
    15  H    0.117310
    16  H    0.126046
    17  H    0.114183
    18  C   -0.460950
    19  H    0.121960
    20  H    0.111706
    21  H    0.125930
    22  C    0.267453
    23  C   -0.318684
    24  C   -0.332657
    25  C   -0.443270
    26  H    0.131832
    27  C   -0.416921
    28  H    0.134419
    29  C    0.294242
    30  H    0.149775
    31  H    0.183614
    32  C    0.547280
    33  C   -0.298574
    34  C   -0.465444
    35  C   -0.400287
    36  H    0.136749
    37  C   -0.350359
    38  H    0.138473
    39  C    0.458491
    40  H    0.209383
    41  H    0.147179
    42  C   -0.676976
    43  H    0.234079
    44  H    0.111038
    45  C   -0.690813
    46  H    0.194667
    47  H    0.287745
    48  C   -0.130723
    49  H    0.153752
    50  C   -0.391933
    51  H    0.264727
    52  C    0.121903
    53  C   -0.590956
    54  H    0.174481
    55  H    0.174362
    56  C   -0.018499
    57  C   -0.618384
    58  H    0.183970
    59  H    0.158684
    60  C    0.072439
    61  H    0.151948
    62  C   -0.503218
    63  H    0.209086
    64  C   -0.015069
    65  C   -0.562510
    66  H    0.172464
    67  H    0.159074
    68  C    0.102827
    69  C   -0.566436
    70  H    0.178909
    71  H    0.170245
    72  N    0.154414
    73  N    0.234061
    74  H    0.134353
    75  H    0.136980
    76  H    0.165426
    77  H    0.137526
    78  H    0.226265
    79  H    0.149014
    80  H    0.176036
    81  H    0.119444
    82  H    0.162033
    83  H    0.146188
    84  H    0.123745
    85  H    0.159227
    86  H    0.116315
    87  H    0.149490
    88  H    0.162630
    89  H    0.141590
    90  H    0.155634
    91  H    0.141112
    92  C    0.886264
    93  O   -0.783212
    94  O   -0.858825
    95  O   -0.678830
    96  O   -0.651160
    97  H    0.240406
    98  H    0.439414
 Sum of Mulliken charges =  -0.00000

 Dipole moment (field-independent basis, Debye):
    X=              8.3470    Y=             -3.0010    Z=             -2.1956  Tot=              9.1378
 Quadrupole moment (field-independent basis, Debye-Ang):
   XX=           -270.7777   YY=           -195.0349   ZZ=           -247.1283
   XY=             32.4573   XZ=             10.9920   YZ=             -7.6479

 Normal termination of Gaussian 16 at Thu May  9 05:26:36 2024.
