 Gaussian 16, Revision A.03,
 Gaussian 16:  ES64L-G16RevA.03 25-Dec-2016

 -----------------------------------
 #p opt=calcfc wb97xd/6-311+g(2d,2p)
 -----------------------------------

 -------------------------
 CARBONATE FROM NAKIE High
 -------------------------
 Symbolic Z-matrix:
 Charge =  0 Multiplicity = 1

 SCF Done:  E(RwB97XD) =  -1505.06084972     A.U. after   15 cycles

  Exact polarizability:   0.000   0.000   0.000   0.000   0.000   0.000
 Approx polarizability: 435.809  -6.644 371.914  -2.451  30.037 401.957

 SCF Done:  E(RwB97XD) =  -1505.06084990     A.U. after    9 cycles
 Optimization completed.
    -- Stationary point found.

                         Standard orientation:
 ---------------------------------------------------------------------
 Center     Atomic      Atomic             Coordinates (Angstroms)
 Number     Number       Type             X           Y           Z
 ---------------------------------------------------------------------
      1          6           0       -4.141542    3.371996   -1.954697
      2          6           0       -4.665537    2.458507   -0.853657
      3          1           0       -4.830603    4.195787   -2.141140
      4          1           0       -3.172398    3.795321   -1.689647
      5          1           0       -4.016111    2.821895   -2.889471
      6          6           0       -3.772125    1.235906   -0.588848
      7          1           0       -4.784969    3.026204    0.073689
      8          1           0       -5.662573    2.099644   -1.120831
      9          6           0       -4.393753    0.329376    0.496432
     10          1           0       -3.723342    0.665116   -1.521537
     11          1           0       -4.028261    0.634765    1.480006
     12          1           0       -5.474632    0.490287    0.515444
     13          6           0       -4.168765   -1.181969    0.315740
     14          6           0       -4.766663   -1.955682    1.498959
     15          1           0       -4.721063   -1.479782   -0.581630
     16          1           0       -4.225764   -1.687034    2.410548
     17          1           0       -5.796485   -1.620084    1.645059
     18          6           0       -4.742692   -3.468087    1.313700
     19          1           0       -5.202453   -3.974663    2.162175
     20          1           0       -5.288804   -3.759652    0.414305
     21          1           0       -3.721031   -3.836638    1.215195
     22          6           0       -2.719466   -1.546438    0.073926
     23          6           0       -2.334203   -2.107331   -1.137544
     24          6           0       -1.730447   -1.289629    1.021615
     25          6           0       -1.001900   -2.379971   -1.407906
     26          1           0       -3.084508   -2.309949   -1.891956
     27          6           0       -0.398007   -1.546926    0.750109
     28          1           0       -1.995488   -0.824024    1.962416
     29          6           0       -0.014423   -2.101836   -0.470713
     30          1           0       -0.725799   -2.783638   -2.374795
     31          1           0        0.368036   -1.261261    1.459850
     32          6           0       -2.355246    1.648975   -0.235459
     33          6           0       -1.268299    1.266859   -1.014910
     34          6           0       -2.106806    2.391981    0.915362
     35          6           0        0.030586    1.555161   -0.629467
     36          1           0       -1.437965    0.673462   -1.904125
     37          6           0       -0.811859    2.711085    1.290122
     38          1           0       -2.930696    2.707013    1.544028
     39          6           0        0.274089    2.287616    0.530640
     40          1           0        0.877833    1.183239   -1.195139
     41          1           0       -0.642418    3.264147    2.206983
     42          6           0        1.683408    2.492920    0.990482
     43          1           0        1.719899    2.670085    2.065573
     44          1           0        2.278050    1.589882    0.755293
     45          6           0        1.438418   -2.277105   -0.797563
     46          1           0        1.612010   -2.187628   -1.868388
     47          1           0        2.038484   -1.516696   -0.279204
     48          6           0        3.857256    3.508088    0.670373
     49          1           0        4.390175    4.397656    0.340138
     50          1           0        3.978609    3.370810    1.742193
     51          1           0        4.177027    2.620413    0.117466
     52          6           0        1.902691    4.947889    0.971915
     53          1           0        0.832214    5.019392    0.794904
     54          1           0        2.102101    4.939464    2.040930
     55          1           0        2.411458    5.789798    0.508063
     56          6           0        2.238855    3.741427   -1.110274
     57          1           0        2.589835    2.779454   -1.497159
     58          1           0        1.193973    3.926519   -1.340387
     59          1           0        2.853730    4.560558   -1.477955
     60          6           0        3.425566   -3.659376   -0.967394
     61          1           0        3.941066   -4.515486   -0.537599
     62          1           0        3.346724   -3.772358   -2.046632
     63          1           0        3.923908   -2.700364   -0.746114
     64          6           0        2.121347   -3.735973    1.081451
     65          1           0        2.819133   -2.982482    1.457178
     66          1           0        1.126418   -3.609300    1.498912
     67          1           0        2.494490   -4.730367    1.318542
     68          6           0        1.242798   -4.746763   -0.943941
     69          1           0        0.260566   -4.753988   -0.480158
     70          1           0        1.140590   -4.624127   -2.019398
     71          1           0        1.766414   -5.674854   -0.727832
     72          7           0        2.403092    3.688639    0.375048
     73          7           0        2.037465   -3.619215   -0.403301
     74          6           0        3.676437    0.063569   -0.589991
     75          8           0        4.419973   -0.890738   -0.959780
     76          8           0        2.970083   -0.070175    0.523748
     77          8           0        3.547829    1.151998   -1.248141
     78          8           0        4.343502   -1.729288    2.006227
     79          1           0        5.087342   -1.830437    1.409543
     80          1           0        3.801990   -1.052059    1.503226
 ---------------------------------------------------------------------

 The electronic state is 1-A.
 Alpha  occ. eigenvalues --  -19.15746 -19.10896 -19.09714 -19.09382 -14.56083
 Alpha  occ. eigenvalues --  -14.55894 -10.34612 -10.34550 -10.31707 -10.31699
 Alpha  occ. eigenvalues --  -10.31593 -10.31022 -10.30976 -10.30942 -10.30631
 Alpha  occ. eigenvalues --  -10.30136 -10.30050 -10.29799 -10.29698 -10.29543
 Alpha  occ. eigenvalues --  -10.29464 -10.29340 -10.29256 -10.29155 -10.29087
 Alpha  occ. eigenvalues --  -10.28973 -10.28652 -10.28648 -10.28541 -10.28391
 Alpha  occ. eigenvalues --  -10.28078 -10.27902 -10.27318 -10.27004  -1.12237
 Alpha  occ. eigenvalues --   -1.12060  -1.06990  -1.02147  -0.98214  -0.97103
 Alpha  occ. eigenvalues --   -0.94718  -0.94147  -0.93675  -0.91211  -0.87818
 Alpha  occ. eigenvalues --   -0.87141  -0.85981  -0.85720  -0.85371  -0.84899
 Alpha  occ. eigenvalues --   -0.84383  -0.83898  -0.83773  -0.81735  -0.80595
 Alpha  occ. eigenvalues --   -0.77428  -0.73334  -0.72471  -0.71700  -0.71589
 Alpha  occ. eigenvalues --   -0.71144  -0.69515  -0.68969  -0.66511  -0.65834
 Alpha  occ. eigenvalues --   -0.62164  -0.61777  -0.61314  -0.61181  -0.60964
 Alpha  occ. eigenvalues --   -0.60718  -0.59470  -0.58223  -0.56926  -0.56138
 Alpha  occ. eigenvalues --   -0.55017  -0.54519  -0.54272  -0.54124  -0.53569
 Alpha  occ. eigenvalues --   -0.53358  -0.52966  -0.52602  -0.52371  -0.52202
 Alpha  occ. eigenvalues --   -0.52049  -0.51449  -0.51214  -0.50998  -0.50334
 Alpha  occ. eigenvalues --   -0.49462  -0.49246  -0.48918  -0.48453  -0.48381
 Alpha  occ. eigenvalues --   -0.48121  -0.47843  -0.47738  -0.47631  -0.47281
 Alpha  occ. eigenvalues --   -0.46957  -0.46872  -0.46235  -0.45746  -0.45412
 Alpha  occ. eigenvalues --   -0.44680  -0.44439  -0.44089  -0.43538  -0.43239
 Alpha  occ. eigenvalues --   -0.42780  -0.42200  -0.41927  -0.41466  -0.41286
 Alpha  occ. eigenvalues --   -0.40983  -0.40605  -0.40120  -0.39932  -0.39464
 Alpha  occ. eigenvalues --   -0.34191  -0.33600  -0.32984  -0.32087  -0.31426
 Alpha  occ. eigenvalues --   -0.27568  -0.26517  -0.26370  -0.25309  -0.21396
 Alpha virt. eigenvalues --    0.03475   0.03852   0.04304   0.04484   0.04916
 Alpha virt. eigenvalues --    0.05263   0.05404   0.05913   0.06250   0.06630
 Alpha virt. eigenvalues --    0.06747   0.07143   0.07533   0.07960   0.08198

 Mulliken charges:
               1
     1  C   -0.441025
     2  C   -0.275911
     3  H    0.121703
     4  H    0.125605
     5  H    0.114856
     6  C    0.144521
     7  H    0.125341
     8  H    0.119771
     9  C   -0.402840
    10  H    0.109391
    11  H    0.136244
    12  H    0.119855
    13  C   -0.002753
    14  C   -0.166457
    15  H    0.120277
    16  H    0.127285
    17  H    0.113098
    18  C   -0.466122
    19  H    0.122059
    20  H    0.111553
    21  H    0.124003
    22  C    0.351641
    23  C   -0.202112
    24  C   -0.377737
    25  C   -0.211170
    26  H    0.126906
    27  C   -0.323738
    28  H    0.132185
    29  C   -0.123924
    30  H    0.130384
    31  H    0.187774
    32  C    0.556333
    33  C   -0.293563
    34  C   -0.333222
    35  C   -0.181254
    36  H    0.130668
    37  C   -0.259771
    38  H    0.132381
    39  C   -0.129373
    40  H    0.185744
    41  H    0.131202
    42  C   -0.358640
    43  H    0.156849
    44  H    0.392928
    45  C   -0.336398
    46  H    0.191256
    47  H    0.300807
    48  C   -0.172603
    49  H    0.130306
    50  H    0.144084
    51  H    0.229314
    52  C   -0.186214
    53  H    0.176978
    54  H    0.153600
    55  H    0.149340
    56  C   -0.370789
    57  H    0.275875
    58  H    0.154783
    59  H    0.147934
    60  C   -0.195198
    61  H    0.135651
    62  H    0.140427
    63  H    0.252254
    64  C   -0.298334
    65  H    0.287961
    66  H    0.165310
    67  H    0.149165
    68  C   -0.211318
    69  H    0.176920
    70  H    0.164603
    71  H    0.163030
    72  N   -0.122537
    73  N   -0.107401
    74  C    0.821415
    75  O   -0.685420
    76  O   -0.931309
    77  O   -0.800517
    78  O   -0.652570
    79  H    0.232399
    80  H    0.426249
 Sum of Mulliken charges =  -0.00000

 Dipole moment (field-independent basis, Debye):
    X=             -9.7615    Y=              1.0091    Z=              0.9047  Tot=              9.8551
 Quadrupole moment (field-independent basis, Debye-Ang):
   XX=           -249.0659   YY=           -140.6146   ZZ=           -215.2024
   XY=             10.7717   XZ=              6.0010   YZ=             19.6734

 Normal termination of Gaussian 16 at Fri Mar 15 06:58:14 2024.
