 Gaussian 16, Revision A.03,
 Gaussian 16:  ES64L-G16RevA.03 25-Dec-2016

 -----------------------------------
 #p opt=calcfc wb97xd/6-311+g(2d,2p)
 -----------------------------------

 -----------
 carb2water2
 -----------
 Symbolic Z-matrix:
 Charge =  0 Multiplicity = 1

 SCF Done:  E(RwB97XD) =  -1581.53650277     A.U. after   14 cycles

  Exact polarizability:   0.000   0.000   0.000   0.000   0.000   0.000
 Approx polarizability: 447.294  -1.506 365.984  -6.493 -26.667 420.867

 SCF Done:  E(RwB97XD) =  -1581.53650326     A.U. after    9 cycles
 Optimization completed.
    -- Stationary point found.

                         Standard orientation:
 ---------------------------------------------------------------------
 Center     Atomic      Atomic             Coordinates (Angstroms)
 Number     Number       Type             X           Y           Z
 ---------------------------------------------------------------------
      1          6           0       -4.709793    3.633279    0.784612
      2          6           0       -4.802351    2.173834    1.212846
      3          1           0       -5.185532    4.285155    1.517204
      4          1           0       -3.671939    3.949407    0.676918
      5          1           0       -5.206079    3.790953   -0.175275
      6          6           0       -4.203039    1.186488    0.196385
      7          1           0       -4.297983    2.039637    2.173900
      8          1           0       -5.849721    1.907807    1.375298
      9          6           0       -4.482895   -0.257222    0.649711
     10          1           0       -4.729507    1.334815   -0.752594
     11          1           0       -4.015906   -0.436284    1.622228
     12          1           0       -5.559929   -0.330620    0.821417
     13          6           0       -4.085090   -1.384262   -0.322163
     14          6           0       -4.852069   -2.672859    0.014793
     15          1           0       -4.389718   -1.078236   -1.328699
     16          1           0       -4.610051   -2.979170    1.036323
     17          1           0       -5.920987   -2.446729    0.010188
     18          6           0       -4.571150   -3.820741   -0.947236
     19          1           0       -5.169515   -4.696530   -0.696333
     20          1           0       -4.809493   -3.535366   -1.973967
     21          1           0       -3.520702   -4.111480   -0.920161
     22          6           0       -2.587747   -1.617374   -0.353778
     23          6           0       -1.852276   -1.361488   -1.503192
     24          6           0       -1.900175   -2.027247    0.786909
     25          6           0       -0.469310   -1.446744   -1.497758
     26          1           0       -2.363228   -1.034523   -2.399832
     27          6           0       -0.518463   -2.101208    0.804524
     28          1           0       -2.445798   -2.231705    1.699953
     29          6           0        0.215647   -1.798781   -0.341282
     30          1           0        0.087526   -1.182771   -2.388943
     31          1           0        0.009359   -2.323079    1.725347
     32          6           0       -2.739586    1.490779   -0.053215
     33          6           0       -2.318656    2.020466   -1.267333
     34          6           0       -1.775979    1.239948    0.920819
     35          6           0       -0.974121    2.259025   -1.514286
     36          1           0       -3.048599    2.222273   -2.041794
     37          6           0       -0.432066    1.452746    0.675362
     38          1           0       -2.071492    0.817291    1.872237
     39          6           0       -0.014995    1.970066   -0.550693
     40          1           0       -0.668116    2.638999   -2.482198
     41          1           0        0.322546    1.177389    1.404718
     42          6           0        1.451877    2.107125   -0.829098
     43          1           0        2.016498    1.368555   -0.260197
     44          1           0        1.678228    2.003101   -1.888500
     45          6           0        1.710798   -1.705118   -0.292932
     46          1           0        2.089148   -1.065210   -1.087277
     47          1           0        2.029856   -1.305593    0.664743
     48          6           0        3.519807    3.372995   -0.740060
     49          1           0        3.980857    4.309778   -0.434289
     50          1           0        3.946027    2.505204   -0.217616
     51          1           0        3.617130    3.234260   -1.814482
     52          6           0        1.928742    3.625597    1.071867
     53          1           0        0.877632    3.764589    1.309149
     54          1           0        2.315166    2.717564    1.552599
     55          1           0        2.493355    4.513360    1.347928
     56          6           0        1.428694    4.566850   -1.120990
     57          1           0        1.551846    4.421777   -2.191851
     58          1           0        0.371936    4.601488   -0.871937
     59          1           0        1.914329    5.490481   -0.815178
     60          6           0        3.924728   -2.703401   -0.508363
     61          1           0        4.465624   -3.643390   -0.599140
     62          1           0        4.096164   -2.067846   -1.373067
     63          1           0        4.194307   -2.154298    0.403626
     64          6           0        2.197466   -3.911877    0.709002
     65          1           0        2.397749   -3.356734    1.622557
     66          1           0        1.156462   -4.221414    0.689980
     67          1           0        2.845400   -4.781186    0.626253
     68          6           0        2.057056   -3.694207   -1.712407
     69          1           0        0.997076   -3.928890   -1.674146
     70          1           0        2.258988   -3.022538   -2.543211
     71          1           0        2.640352   -4.605429   -1.821290
     72          7           0        2.063644    3.437311   -0.405381
     73          7           0        2.459090   -3.020527   -0.455149
     74          6           0        3.592329    0.174219    1.323456
     75          8           0        3.990436   -0.909407    1.875785
     76          8           0        2.533638    0.773057    1.740384
     77          8           0        4.219912    0.638312    0.286239
     78          8           0        3.696723    0.198570   -2.207494
     79          1           0        4.542046    0.209864   -2.653522
     80          1           0        3.917397    0.339498   -1.234492
     81          8           0        1.862460   -1.738044    3.174768
     82          1           0        2.756740   -1.479080    2.812348
     83          1           0        1.455778   -0.867867    3.168309
 ---------------------------------------------------------------------

 The electronic state is 1-A.
 Alpha  occ. eigenvalues --  -19.20111 -19.16190 -19.11796 -19.11522 -19.11457
 Alpha  occ. eigenvalues --  -14.56399 -14.56131 -10.34842 -10.34307 -10.32777
 Alpha  occ. eigenvalues --  -10.32526 -10.32404 -10.31903 -10.31487 -10.31477
 Alpha  occ. eigenvalues --  -10.30346 -10.29838 -10.29777 -10.29718 -10.29652
 Alpha  occ. eigenvalues --  -10.29637 -10.29625 -10.29490 -10.29142 -10.28922
 Alpha  occ. eigenvalues --  -10.28694 -10.28656 -10.28495 -10.28476 -10.28387
 Alpha  occ. eigenvalues --  -10.28360 -10.28295 -10.28203 -10.27167 -10.27079
 Alpha  occ. eigenvalues --   -1.12584  -1.12312  -1.08813  -1.06276  -1.02642
 Alpha  occ. eigenvalues --   -0.98097  -0.97114  -0.96244  -0.95845  -0.93725
 Alpha  occ. eigenvalues --   -0.91233  -0.87987  -0.87322  -0.86066  -0.85805
 Alpha  occ. eigenvalues --   -0.85295  -0.84976  -0.84390  -0.84101  -0.84002
 Alpha  occ. eigenvalues --   -0.81851  -0.80862  -0.77476  -0.73513  -0.72556
 Alpha  occ. eigenvalues --   -0.71580  -0.71501  -0.71036  -0.69649  -0.69201
 Alpha  occ. eigenvalues --   -0.66209  -0.66047  -0.62327  -0.61911  -0.61655
 Alpha  occ. eigenvalues --   -0.61499  -0.61327  -0.60918  -0.59618  -0.58566
 Alpha  occ. eigenvalues --   -0.58123  -0.56803  -0.56257  -0.54937  -0.54643
 Alpha  occ. eigenvalues --   -0.54506  -0.53935  -0.53709  -0.53503  -0.52996
 Alpha  occ. eigenvalues --   -0.52629  -0.52521  -0.52266  -0.52115  -0.51699
 Alpha  occ. eigenvalues --   -0.51249  -0.50707  -0.50439  -0.49712  -0.49586
 Alpha  occ. eigenvalues --   -0.49413  -0.49036  -0.48554  -0.48370  -0.48134
 Alpha  occ. eigenvalues --   -0.47914  -0.47745  -0.47455  -0.47183  -0.47074
 Alpha  occ. eigenvalues --   -0.46727  -0.46180  -0.45662  -0.45136  -0.44888
 Alpha  occ. eigenvalues --   -0.44349  -0.44080  -0.43930  -0.43456  -0.42997
 Alpha  occ. eigenvalues --   -0.42737  -0.42369  -0.41987  -0.41372  -0.41084
 Alpha  occ. eigenvalues --   -0.40743  -0.40576  -0.40059  -0.39898  -0.36204
 Alpha  occ. eigenvalues --   -0.34539  -0.34111  -0.32594  -0.32400  -0.30898
 Alpha  occ. eigenvalues --   -0.28908  -0.28432  -0.27815  -0.27259  -0.23000
 Alpha virt. eigenvalues --    0.03196   0.04045   0.04088   0.04225   0.05254
 Alpha virt. eigenvalues --    0.05323   0.05839   0.05965   0.06312   0.06698
 Alpha virt. eigenvalues --    0.06814   0.06934   0.07620   0.07974   0.08202

 Mulliken charges:
               1
     1  C   -0.465680
     2  C   -0.221246
     3  H    0.123374
     4  H    0.123309
     5  H    0.111166
     6  C    0.092558
     7  H    0.129735
     8  H    0.114465
     9  C   -0.523835
    10  H    0.119428
    11  H    0.146028
    12  H    0.123580
    13  C    0.089520
    14  C   -0.206413
    15  H    0.106192
    16  H    0.126219
    17  H    0.119631
    18  C   -0.455107
    19  H    0.122860
    20  H    0.112204
    21  H    0.124940
    22  C    0.547184
    23  C   -0.265733
    24  C   -0.436486
    25  C   -0.337866
    26  H    0.127065
    27  C   -0.346560
    28  H    0.139959
    29  C    0.107493
    30  H    0.142898
    31  H    0.189659
    32  C    0.344497
    33  C   -0.292375
    34  C   -0.301116
    35  C   -0.283123
    36  H    0.128145
    37  C   -0.251990
    38  H    0.138816
    39  C    0.007236
    40  H    0.134703
    41  H    0.188902
    42  C   -0.345581
    43  H    0.223828
    44  H    0.192452
    45  C   -0.943997
    46  H    0.200928
    47  H    0.256758
    48  C   -0.226011
    49  H    0.143614
    50  H    0.264102
    51  H    0.148289
    52  C   -0.271308
    53  H    0.153145
    54  H    0.266059
    55  H    0.148946
    56  C   -0.186760
    57  H    0.160368
    58  H    0.182502
    59  H    0.157185
    60  C   -0.202133
    61  H    0.144902
    62  H    0.172091
    63  H    0.282098
    64  C   -0.189894
    65  H    0.237254
    66  H    0.157318
    67  H    0.148470
    68  C   -0.205148
    69  H    0.177874
    70  H    0.182827
    71  H    0.158613
    72  N   -0.041463
    73  N    0.223217
    74  C    0.900475
    75  O   -0.744537
    76  O   -0.824332
    77  O   -0.825475
    78  O   -0.643058
    79  H    0.242789
    80  H    0.408046
    81  O   -0.579271
    82  H    0.352076
    83  H    0.248508
 Sum of Mulliken charges =  -0.00000

 Dipole moment (field-independent basis, Debye):
    X=             -6.8466    Y=              2.2383    Z=             -9.2436  Tot=             11.7188
 Quadrupole moment (field-independent basis, Debye-Ang):
   XX=           -234.9300   YY=           -164.7278   ZZ=           -231.0604
   XY=              1.7550   XZ=            -30.9889   YZ=              6.2723

 Normal termination of Gaussian 16 at Fri Mar 15 13:16:24 2024.
