 Gaussian 16, Revision A.03,
 Gaussian 16:  ES64L-G16RevA.03 25-Dec-2016

 -----------------------------------------------------
 #p opt=calcfc wb97xd/6-311+g(2d,2p) geom=connectivity
 -----------------------------------------------------

 ---------------------------
 carb4water2 opt freq High 2
 ---------------------------
 Symbolic Z-matrix:
 Charge =  0 Multiplicity = 1

 SCF Done:  E(RwB97XD) =  -1734.45723686     A.U. after   14 cycles

  Exact polarizability:   0.000   0.000   0.000   0.000   0.000   0.000
 Approx polarizability: 462.783  -7.992 381.818   4.676  23.771 438.224

 SCF Done:  E(RwB97XD) =  -1734.45723753     A.U. after    9 cycles
 Optimization completed.
    -- Stationary point found.

                         Standard orientation:
 ---------------------------------------------------------------------
 Center     Atomic      Atomic             Coordinates (Angstroms)
 Number     Number       Type             X           Y           Z
 ---------------------------------------------------------------------
      1          6           0        5.829048    2.803253   -0.836532
      2          6           0        5.645328    1.322046   -1.143539
      3          1           0        6.458077    3.283782   -1.585774
      4          1           0        4.870841    3.323475   -0.817423
      5          1           0        6.302196    2.944179    0.137334
      6          6           0        4.799954    0.578220   -0.099320
      7          1           0        5.180368    1.204420   -2.126408
      8          1           0        6.622542    0.836701   -1.206841
      9          6           0        4.799368   -0.931996   -0.392378
     10          1           0        5.283065    0.717045    0.873516
     11          1           0        4.454882   -1.104952   -1.415557
     12          1           0        5.840789   -1.262770   -0.371031
     13          6           0        3.992521   -1.812632    0.581543
     14          6           0        4.563011   -3.241510    0.605021
     15          1           0        4.114733   -1.397849    1.587430
     16          1           0        4.503972   -3.665693   -0.401678
     17          1           0        5.626290   -3.179929    0.848724
     18          6           0        3.868754   -4.167287    1.596364
     19          1           0        4.345036   -5.147540    1.613761
     20          1           0        3.910419   -3.756925    2.607267
     21          1           0        2.818129   -4.307170    1.341141
     22          6           0        2.504827   -1.832893    0.280985
     23          6           0        1.572586   -1.434389    1.230972
     24          6           0        2.032209   -2.250663   -0.961616
     25          6           0        0.214955   -1.430114    0.948917
     26          1           0        1.914283   -1.086812    2.197230
     27          6           0        0.679312   -2.239834   -1.251135
     28          1           0        2.731402   -2.558907   -1.729068
     29          6           0       -0.251660   -1.839815   -0.295638
     30          1           0       -0.493461   -1.076863    1.688466
     31          1           0        0.344920   -2.517236   -2.243109
     32          6           0        3.405563    1.154550    0.011316
     33          6           0        2.974068    1.754898    1.186365
     34          6           0        2.498147    1.039712   -1.039853
     35          6           0        1.662688    2.187883    1.325233
     36          1           0        3.660707    1.853564    2.018225
     37          6           0        1.184304    1.443652   -0.900506
     38          1           0        2.803311    0.562526   -1.962252
     39          6           0        0.749397    2.024493    0.291071
     40          1           0        1.334355    2.611596    2.266727
     41          1           0        0.470478    1.258925   -1.694755
     42          6           0       -0.699619    2.343232    0.503838
     43          1           0       -1.354624    1.607493    0.046036
     44          1           0       -0.945223    2.352587    1.562635
     45          6           0       -1.719978   -1.772658   -0.594117
     46          1           0       -2.192493   -1.051854    0.072417
     47          1           0       -1.908567   -1.465163   -1.620471
     48          6           0       -2.645568    3.770122    0.157862
     49          1           0       -2.979324    4.737200   -0.212967
     50          1           0       -3.100979    2.946999   -0.397469
     51          1           0       -2.869730    3.660473    1.216200
     52          6           0       -0.838461    3.859562   -1.463784
     53          1           0        0.240102    3.890311   -1.587335
     54          1           0       -1.250495    3.014480   -2.013930
     55          1           0       -1.278939    4.793483   -1.805053
     56          6           0       -0.517587    4.781512    0.765042
     57          1           0       -0.801841    4.663359    1.807673
     58          1           0        0.561539    4.708831    0.658287
     59          1           0       -0.866682    5.740399    0.389247
     60          6           0       -3.923625   -2.810326   -0.673138
     61          1           0       -4.466202   -3.747374   -0.566238
     62          1           0       -4.293271   -2.061451    0.028745
     63          1           0       -4.021283   -2.408262   -1.680283
     64          6           0       -1.991795   -4.110480   -1.352320
     65          1           0       -2.098466   -3.727809   -2.364336
     66          1           0       -0.950249   -4.335300   -1.142999
     67          1           0       -2.595377   -5.006530   -1.231196
     68          6           0       -2.330520   -3.578651    0.996701
     69          1           0       -1.279124   -3.764312    1.197340
     70          1           0       -2.740193   -2.832260    1.682819
     71          1           0       -2.894208   -4.505359    1.082116
     72          7           0       -1.158485    3.697916   -0.019385
     73          7           0       -2.475831   -3.081399   -0.400955
     74          6           0       -3.933614    0.466693    0.233967
     75          8           0       -3.651768    1.000690   -0.924075
     76          8           0       -5.011002   -0.128555    0.437851
     77          8           0       -2.997398    0.528261    1.150365
     78          8           0       -3.753328   -1.408488    2.810890
     79          1           0       -4.671314   -1.385602    2.528480
     80          1           0       -3.405040   -0.649895    2.277710
     81          8           0       -2.643426    2.361128    3.021522
     82          1           0       -2.870179    1.659936    2.358182
     83          1           0       -3.079992    2.090479    3.827641
     84          8           0       -1.594665    0.900299   -2.547537
     85          1           0       -2.096984    0.559716   -3.291697
     86          1           0       -2.289542    0.943060   -1.838230
     87          8           0       -4.182753   -0.543924   -2.999478
     88          1           0       -5.070544   -0.448848   -3.340441
     89          1           0       -4.154865    0.037262   -2.190669
 ---------------------------------------------------------------------

 The electronic state is 1-A.
 Alpha  occ. eigenvalues --  -19.19937 -19.19843 -19.19662 -19.17403 -19.14029
 Alpha  occ. eigenvalues --  -19.13816 -19.12140 -14.56558 -14.56402 -10.34599
 Alpha  occ. eigenvalues --  -10.34490 -10.34282 -10.33086 -10.32329 -10.32202
 Alpha  occ. eigenvalues --  -10.32084 -10.31056 -10.30853 -10.30078 -10.30039
 Alpha  occ. eigenvalues --  -10.29965 -10.29890 -10.29865 -10.29820 -10.29600
 Alpha  occ. eigenvalues --  -10.29417 -10.29134 -10.29003 -10.28992 -10.28887
 Alpha  occ. eigenvalues --  -10.28759 -10.28742 -10.28647 -10.28585 -10.28509
 Alpha  occ. eigenvalues --  -10.27324 -10.27241  -1.12733  -1.12550  -1.10595
 Alpha  occ. eigenvalues --   -1.06706  -1.06213  -1.05724  -1.03985  -0.98354
 Alpha  occ. eigenvalues --   -0.98072  -0.97635  -0.97394  -0.93948  -0.91455
 Alpha  occ. eigenvalues --   -0.88099  -0.87555  -0.86158  -0.86086  -0.85391
 Alpha  occ. eigenvalues --   -0.85219  -0.84741  -0.84467  -0.84233  -0.82042
 Alpha  occ. eigenvalues --   -0.81029  -0.77681  -0.73665  -0.72825  -0.71962
 Alpha  occ. eigenvalues --   -0.71703  -0.71400  -0.69778  -0.69492  -0.66501
 Alpha  occ. eigenvalues --   -0.66264  -0.62460  -0.62136  -0.61906  -0.61647
 Alpha  occ. eigenvalues --   -0.61426  -0.61258  -0.59941  -0.59345  -0.58736
 Alpha  occ. eigenvalues --   -0.57907  -0.57175  -0.56960  -0.56424  -0.55062
 Alpha  occ. eigenvalues --   -0.54856  -0.54693  -0.54487  -0.54016  -0.53870
 Alpha  occ. eigenvalues --   -0.53188  -0.52799  -0.52601  -0.52496  -0.52252
 Alpha  occ. eigenvalues --   -0.51962  -0.51456  -0.51164  -0.50985  -0.50054
 Alpha  occ. eigenvalues --   -0.49727  -0.49459  -0.49287  -0.49117  -0.48955
 Alpha  occ. eigenvalues --   -0.48688  -0.48447  -0.47952  -0.47652  -0.47503
 Alpha  occ. eigenvalues --   -0.47406  -0.47184  -0.46708  -0.46345  -0.45928
 Alpha  occ. eigenvalues --   -0.45606  -0.45159  -0.44682  -0.44459  -0.44247
 Alpha  occ. eigenvalues --   -0.43911  -0.43322  -0.43264  -0.42980  -0.42796
 Alpha  occ. eigenvalues --   -0.42448  -0.41779  -0.41512  -0.41184  -0.40724
 Alpha  occ. eigenvalues --   -0.40291  -0.40145  -0.36152  -0.35887  -0.35628
 Alpha  occ. eigenvalues --   -0.34492  -0.33937  -0.33652  -0.33289  -0.31695
 Alpha  occ. eigenvalues --   -0.31035  -0.30103  -0.29782  -0.28471  -0.24703
 Alpha virt. eigenvalues --    0.03410   0.03802   0.04268   0.04410   0.04917
 Alpha virt. eigenvalues --    0.05199   0.05298   0.05745   0.06208   0.06583
 Alpha virt. eigenvalues --    0.06689   0.07141   0.07362   0.07919   0.08582

 Mulliken charges:
               1
     1  C   -0.458511
     2  C   -0.215103
     3  H    0.121614
     4  H    0.125833
     5  H    0.112189
     6  C    0.173536
     7  H    0.125162
     8  H    0.113251
     9  C   -0.550310
    10  H    0.119612
    11  H    0.139611
    12  H    0.124991
    13  C    0.169843
    14  C   -0.257550
    15  H    0.111256
    16  H    0.125864
    17  H    0.120397
    18  C   -0.453492
    19  H    0.123366
    20  H    0.117310
    21  H    0.123465
    22  C    0.625738
    23  C   -0.237567
    24  C   -0.524164
    25  C   -0.419546
    26  H    0.134145
    27  C   -0.314565
    28  H    0.137987
    29  C   -0.046953
    30  H    0.201448
    31  H    0.140007
    32  C    0.263327
    33  C   -0.274565
    34  C   -0.344595
    35  C   -0.326342
    36  H    0.128418
    37  C   -0.154345
    38  H    0.132886
    39  C   -0.004908
    40  H    0.143081
    41  H    0.180476
    42  C   -0.907934
    43  H    0.272337
    44  H    0.247739
    45  C   -0.581175
    46  H    0.158834
    47  H    0.195741
    48  C   -0.165504
    49  H    0.152822
    50  H    0.234857
    51  H    0.206485
    52  C   -0.241786
    53  H    0.166970
    54  H    0.230585
    55  H    0.155203
    56  C   -0.177449
    57  H    0.190694
    58  H    0.173053
    59  H    0.152773
    60  C   -0.157836
    61  H    0.151630
    62  H    0.203060
    63  H    0.209840
    64  C   -0.158266
    65  H    0.179514
    66  H    0.182019
    67  H    0.159022
    68  C   -0.269003
    69  H    0.167878
    70  H    0.276773
    71  H    0.149628
    72  N    0.078798
    73  N    0.133475
    74  C    0.835028
    75  O   -0.866277
    76  O   -0.613643
    77  O   -0.795950
    78  O   -0.624106
    79  H    0.239546
    80  H    0.381631
    81  O   -0.671422
    82  H    0.428938
    83  H    0.298047
    84  O   -0.668109
    85  H    0.305289
    86  H    0.436295
    87  O   -0.668590
    88  H    0.261673
    89  H    0.398573
 Sum of Mulliken charges =  -0.00000

 Dipole moment (field-independent basis, Debye):
    X=              9.3631    Y=             -0.6748    Z=             -2.9901  Tot=              9.8521
 Quadrupole moment (field-independent basis, Debye-Ang):
   XX=           -259.3653   YY=           -172.7003   ZZ=           -238.5197
   XY=              9.1233   XZ=             13.7923   YZ=              8.6382

 Normal termination of Gaussian 16 at Fri Mar 15 21:07:31 2024.
