 Gaussian 16, Revision A.03,
 Gaussian 16:  ES64L-G16RevA.03 25-Dec-2016

 ----------------------------------------------
 #p opt=readfc wb97xd/6-311+g(2d,2p) guess=read
 ----------------------------------------------

 ----------------
 carb6water2 high
 ----------------
 Symbolic Z-matrix:
 Charge =  0 Multiplicity = 1

 SCF Done:  E(RwB97XD) =  -1887.37404832     A.U. after    2 cycles

 The electronic state is 1-A.
 Alpha  occ. eigenvalues --  -19.21411 -19.21128 -19.20852 -19.20411 -19.19380
 Alpha  occ. eigenvalues --  -19.16817 -19.16450 -19.15979 -19.14740 -14.57486
 Alpha  occ. eigenvalues --  -14.56889 -10.36783 -10.35498 -10.34980 -10.33594
 Alpha  occ. eigenvalues --  -10.33085 -10.32961 -10.32879 -10.32819 -10.31659
 Alpha  occ. eigenvalues --  -10.30596 -10.30530 -10.30444 -10.30376 -10.30281
 Alpha  occ. eigenvalues --  -10.30236 -10.30099 -10.29987 -10.29543 -10.29469
 Alpha  occ. eigenvalues --  -10.29299 -10.29287 -10.29235 -10.29214 -10.29211
 Alpha  occ. eigenvalues --  -10.28915 -10.28858 -10.27630 -10.27534  -1.13711
 Alpha  occ. eigenvalues --   -1.13236  -1.13011  -1.08266  -1.07591  -1.07315
 Alpha  occ. eigenvalues --   -1.06799  -1.05942  -1.03417  -1.00486  -1.00148
 Alpha  occ. eigenvalues --   -0.98778  -0.97942  -0.94378  -0.91923  -0.88715
 Alpha  occ. eigenvalues --   -0.88042  -0.86989  -0.86586  -0.86057  -0.85753
 Alpha  occ. eigenvalues --   -0.85627  -0.85039  -0.84769  -0.82631  -0.81673
 Alpha  occ. eigenvalues --   -0.78135  -0.74428  -0.73456  -0.72394  -0.72045
 Alpha  occ. eigenvalues --   -0.71765  -0.70480  -0.69960  -0.66863  -0.66800
 Alpha  occ. eigenvalues --   -0.63280  -0.62891  -0.62709  -0.62458  -0.62277
 Alpha  occ. eigenvalues --   -0.61843  -0.61492  -0.60555  -0.59487  -0.58897
 Alpha  occ. eigenvalues --   -0.58499  -0.58048  -0.57533  -0.57173  -0.56509
 Alpha  occ. eigenvalues --   -0.55673  -0.55473  -0.55255  -0.55024  -0.54449
 Alpha  occ. eigenvalues --   -0.54268  -0.53947  -0.53423  -0.53339  -0.53048
 Alpha  occ. eigenvalues --   -0.52883  -0.52610  -0.52056  -0.51576  -0.51412
 Alpha  occ. eigenvalues --   -0.50988  -0.50779  -0.50311  -0.50094  -0.49856
 Alpha  occ. eigenvalues --   -0.49757  -0.49496  -0.49295  -0.48946  -0.48730
 Alpha  occ. eigenvalues --   -0.48520  -0.48407  -0.48083  -0.47647  -0.47149
 Alpha  occ. eigenvalues --   -0.46763  -0.46564  -0.46284  -0.45675  -0.45221
 Alpha  occ. eigenvalues --   -0.45164  -0.44917  -0.44733  -0.44446  -0.43749
 Alpha  occ. eigenvalues --   -0.43724  -0.43424  -0.43264  -0.43078  -0.41973
 Alpha  occ. eigenvalues --   -0.41607  -0.41540  -0.41306  -0.40714  -0.40523
 Alpha  occ. eigenvalues --   -0.37482  -0.37241  -0.36469  -0.36356  -0.35822
 Alpha  occ. eigenvalues --   -0.35544  -0.34879  -0.33658  -0.33103  -0.32841
 Alpha  occ. eigenvalues --   -0.32359  -0.32171  -0.31614  -0.30903  -0.27154
 Alpha virt. eigenvalues --    0.01933   0.02818   0.03764   0.04012   0.04930
 Alpha virt. eigenvalues --    0.05173   0.05407   0.05878   0.06065   0.06328
 Alpha virt. eigenvalues --    0.06464   0.06596   0.07256   0.07715   0.08332

 Mulliken charges:
               1
     1  C   -0.468092
     2  C   -0.205312
     3  H    0.123995
     4  H    0.123506
     5  H    0.111726
     6  C    0.077254
     7  H    0.128134
     8  H    0.119371
     9  C   -0.491779
    10  H    0.111854
    11  H    0.144344
    12  H    0.120646
    13  C    0.075675
    14  C   -0.216572
    15  H    0.110920
    16  H    0.128473
    17  H    0.119870
    18  C   -0.455715
    19  H    0.123774
    20  H    0.111822
    21  H    0.124679
    22  C    0.570174
    23  C   -0.372154
    24  C   -0.445431
    25  C   -0.438232
    26  H    0.133420
    27  C   -0.358887
    28  H    0.141860
    29  C    0.238608
    30  H    0.144795
    31  H    0.183278
    32  C    0.557342
    33  C   -0.361467
    34  C   -0.377420
    35  C   -0.409211
    36  H    0.134860
    37  C   -0.432887
    38  H    0.140942
    39  C    0.212840
    40  H    0.142720
    41  H    0.195807
    42  C   -0.677202
    43  H    0.244627
    44  H    0.193574
    45  C   -0.929301
    46  H    0.214108
    47  H    0.195483
    48  C   -0.184818
    49  H    0.174713
    50  H    0.204545
    51  H    0.209172
    52  C   -0.256658
    53  H    0.169607
    54  H    0.240323
    55  H    0.157397
    56  C   -0.158684
    57  H    0.186951
    58  H    0.178610
    59  H    0.158190
    60  C   -0.172939
    61  H    0.189081
    62  H    0.190379
    63  H    0.200687
    64  C   -0.265164
    65  H    0.230139
    66  H    0.163573
    67  H    0.161064
    68  C   -0.168215
    69  H    0.178364
    70  H    0.188095
    71  H    0.162024
    72  N    0.120484
    73  N    0.258010
    74  C    0.876114
    75  O   -0.913867
    76  O   -0.576291
    77  O   -1.030402
    78  O   -0.617319
    79  H    0.270558
    80  H    0.465768
    81  O   -0.651328
    82  H    0.417503
    83  H    0.247165
    84  O   -0.684357
    85  H    0.315662
    86  H    0.414886
    87  O   -0.601293
    88  H    0.296776
    89  H    0.322004
    90  O   -0.739206
    91  H    0.283102
    92  H    0.470696
    93  O   -0.563787
    94  H    0.228355
    95  H    0.393515
 Sum of Mulliken charges =  -0.00000

 Dipole moment (field-independent basis, Debye):
    X=            -11.9081    Y=              2.8676    Z=             -6.0477  Tot=             13.6602
 Quadrupole moment (field-independent basis, Debye-Ang):
   XX=           -290.1906   YY=           -200.3435   ZZ=           -246.0445
   XY=             14.8143   XZ=             -9.8539   YZ=              6.5198

 Optimization completed on the basis of negligible forces.
    -- Stationary point found.

                         Standard orientation:
 ---------------------------------------------------------------------
 Center     Atomic      Atomic             Coordinates (Angstroms)
 Number     Number       Type             X           Y           Z
 ---------------------------------------------------------------------
      1          6           0       -5.616969    3.563350    0.049705
      2          6           0       -5.728438    2.192614    0.706022
      3          1           0       -6.209761    4.302797    0.587872
      4          1           0       -4.583568    3.910437    0.029901
      5          1           0       -5.976259    3.532602   -0.981008
      6          6           0       -4.966756    1.084094   -0.040244
      7          1           0       -5.363071    2.245759    1.735411
      8          1           0       -6.780199    1.903720    0.769185
      9          6           0       -5.227673   -0.276374    0.630253
     10          1           0       -5.378439    1.032843   -1.053871
     11          1           0       -4.763094   -0.293916    1.620266
     12          1           0       -6.304102   -0.346869    0.806479
     13          6           0       -4.809819   -1.531137   -0.157388
     14          6           0       -5.478174   -2.778924    0.443626
     15          1           0       -5.189642   -1.419509   -1.178568
     16          1           0       -5.151490   -2.895879    1.480704
     17          1           0       -6.556307   -2.606102    0.480827
     18          6           0       -5.195538   -4.059655   -0.332203
     19          1           0       -5.726800   -4.905351    0.104068
     20          1           0       -5.515178   -3.964125   -1.371952
     21          1           0       -4.131097   -4.295605   -0.333451
     22          6           0       -3.307539   -1.705169   -0.252092
     23          6           0       -2.664280   -1.696018   -1.482311
     24          6           0       -2.527673   -1.846510    0.893954
     25          6           0       -1.282092   -1.767517   -1.566506
     26          1           0       -3.248505   -1.582379   -2.386947
     27          6           0       -1.149008   -1.915065    0.818272
     28          1           0       -2.998968   -1.855822    1.868728
     29          6           0       -0.506572   -1.866438   -0.418265
     30          1           0       -0.800177   -1.695932   -2.534198
     31          1           0       -0.557187   -1.967540    1.724428
     32          6           0       -3.496006    1.425562   -0.169240
     33          6           0       -2.920961    1.647727   -1.413834
     34          6           0       -2.676274    1.505134    0.954234
     35          6           0       -1.561024    1.887227   -1.539339
     36          1           0       -3.536621    1.586987   -2.302720
     37          6           0       -1.319285    1.744367    0.837804
     38          1           0       -3.093800    1.333867    1.938385
     39          6           0       -0.741676    1.930221   -0.417202
     40          1           0       -1.126852    1.993945   -2.526303
     41          1           0       -0.690091    1.756921    1.720512
     42          6           0        0.745553    2.064953   -0.541600
     43          1           0        1.255915    1.536936    0.268679
     44          1           0        1.102912    1.649677   -1.481803
     45          6           0        0.989063   -1.802494   -0.485948
     46          1           0        1.327785   -1.256528   -1.365598
     47          1           0        1.380169   -1.291541    0.391207
     48          6           0        2.756943    3.426070   -0.392123
     49          1           0        3.161297    4.434088   -0.433762
     50          1           0        2.998993    2.951537    0.552194
     51          1           0        3.151473    2.820152   -1.201268
     52          6           0        0.722633    4.264434    0.633798
     53          1           0       -0.351783    4.366819    0.513474
     54          1           0        0.952250    3.726737    1.553363
     55          1           0        1.193656    5.244924    0.637314
     56          6           0        0.918130    4.186179   -1.787153
     57          1           0        1.358406    3.636259   -2.615096
     58          1           0       -0.163294    4.214950   -1.887863
     59          1           0        1.315447    5.197938   -1.758892
     60          6           0        3.166352   -2.884878   -0.398798
     61          1           0        3.708323   -3.818858   -0.513012
     62          1           0        3.476652   -2.172237   -1.157612
     63          1           0        3.349844   -2.469955    0.587564
     64          6           0        1.261096   -4.039151    0.560403
     65          1           0        1.385978   -3.499480    1.500510
     66          1           0        0.219294   -4.307414    0.410820
     67          1           0        1.884667   -4.929808    0.540029
     68          6           0        1.442440   -3.797154   -1.855766
     69          1           0        0.373850   -3.956882   -1.972272
     70          1           0        1.813243   -3.147985   -2.645117
     71          1           0        1.967086   -4.748976   -1.881225
     72          7           0        1.268681    3.497844   -0.520727
     73          7           0        1.698157   -3.145918   -0.548805
     74          6           0        3.380654   -0.001681    1.203206
     75          8           0        2.166233    0.256528    1.594388
     76          8           0        4.143330   -0.733426    1.871403
     77          8           0        3.747232    0.496267    0.051396
     78          8           0        2.656383    0.307547   -2.373183
     79          1           0        3.491335    0.093667   -2.799989
     80          1           0        2.933607    0.398856   -1.429931
     81          8           0        5.667531    2.387251   -0.147841
     82          1           0        5.007275    1.685566    0.034652
     83          1           0        6.320504    2.295038    0.544741
     84          8           0        1.338944    2.302586    3.010950
     85          1           0        1.597837    2.223538    3.927397
     86          1           0        1.719480    1.509651    2.557551
     87          8           0        5.968427   -2.325220    0.470311
     88          1           0        6.104343   -1.835265   -0.346606
     89          1           0        5.450508   -1.711329    1.024987
     90          8           0        5.507076   -0.422715   -1.754485
     91          1           0        6.131505    0.302320   -1.815076
     92          1           0        4.936056   -0.163331   -0.994628
     93          8           0        1.654468   -1.980028    3.004116
     94          1           0        2.563966   -2.150073    3.260819
     95          1           0        1.755112   -1.096259    2.579418
 ---------------------------------------------------------------------

 Normal termination of Gaussian 16 at Sat Mar 16 16:08:18 2024.
