 Gaussian 16, Revision A.03,
 Gaussian 16:  ES64L-G16RevA.03 25-Dec-2016

 -----------------------------------------------------
 #p opt=calcfc wb97xd/6-311+g(2d,2p) geom=connectivity
 -----------------------------------------------------

 ----------------------
 8w carbonate ropt freq
 ----------------------
 Symbolic Z-matrix:
 Charge =  0 Multiplicity = 1

 SCF Done:  E(RwB97XD) =  -2040.29411981     A.U. after   14 cycles

  Exact polarizability:   0.000   0.000   0.000   0.000   0.000   0.000
 Approx polarizability: 500.305 -11.250 410.214   3.950  21.889 475.499

 SCF Done:  E(RwB97XD) =  -2040.29412084     A.U. after    9 cycles
 Optimization completed.
    -- Stationary point found.

                         Standard orientation:
 ---------------------------------------------------------------------
 Center     Atomic      Atomic             Coordinates (Angstroms)
 Number     Number       Type             X           Y           Z
 ---------------------------------------------------------------------
      1          6           0        5.131288   -4.385472    0.784793
      2          6           0        5.538891   -2.978113    1.203533
      3          1           0        5.477532   -5.123295    1.508224
      4          1           0        4.047705   -4.476580    0.704591
      5          1           0        5.558926   -4.643151   -0.186295
      6          6           0        5.133955   -1.889904    0.195500
      7          1           0        5.100995   -2.742059    2.177330
      8          1           0        6.622601   -2.936600    1.336801
      9          6           0        5.717038   -0.532765    0.624114
     10          1           0        5.595594   -2.147275   -0.763644
     11          1           0        5.333820   -0.261257    1.611836
     12          1           0        6.793167   -0.676358    0.750095
     13          6           0        5.501746    0.642131   -0.350478
     14          6           0        6.592576    1.707533   -0.160321
     15          1           0        5.603259    0.253760   -1.369239
     16          1           0        6.564784    2.075841    0.869053
     17          1           0        7.564786    1.224479   -0.282392
     18          6           0        6.480785    2.876857   -1.130968
     19          1           0        7.301250    3.580629   -0.991815
     20          1           0        6.510834    2.528015   -2.165150
     21          1           0        5.544931    3.418942   -0.992432
     22          6           0        4.110309    1.230048   -0.227426
     23          6           0        3.184230    1.095474   -1.254828
     24          6           0        3.700948    1.858996    0.945204
     25          6           0        1.869985    1.498753   -1.095827
     26          1           0        3.478810    0.602056   -2.171590
     27          6           0        2.394823    2.292136    1.101018
     28          1           0        4.397088    1.979401    1.765830
     29          6           0        1.458340    2.102647    0.089078
     30          1           0        1.141262    1.295863   -1.871393
     31          1           0        2.085371    2.734425    2.040359
     32          6           0        3.634838   -1.879870   -0.024212
     33          6           0        3.098255   -2.215954   -1.260999
     34          6           0        2.754391   -1.531130    0.998301
     35          6           0        1.729214   -2.178437   -1.482521
     36          1           0        3.762596   -2.481846   -2.074077
     37          6           0        1.387886   -1.500055    0.786237
     38          1           0        3.140821   -1.251073    1.969825
     39          6           0        0.855589   -1.826694   -0.460929
     40          1           0        1.343209   -2.393387   -2.471496
     41          1           0        0.721016   -1.207747    1.589165
     42          6           0       -0.623316   -1.725731   -0.684691
     43          1           0       -1.068345   -1.007235    0.003053
     44          1           0       -0.851871   -1.383913   -1.692652
     45          6           0        0.009231    2.398411    0.325596
     46          1           0       -0.626807    1.637032   -0.114316
     47          1           0       -0.217292    2.415987    1.388849
     48          6           0       -2.851438   -2.680182   -0.444830
     49          1           0       -3.435366   -3.595232   -0.418441
     50          1           0       -3.032769   -2.106854    0.458742
     51          1           0       -3.111791   -2.097707   -1.325119
     52          6           0       -1.024445   -3.704131    0.780497
     53          1           0        0.019327   -4.000404    0.734516
     54          1           0       -1.202580   -3.014169    1.606243
     55          1           0       -1.659330   -4.580931    0.885553
     56          6           0       -1.150062   -3.942138   -1.635379
     57          1           0       -1.472426   -3.454364   -2.551737
     58          1           0       -0.090498   -4.177337   -1.683497
     59          1           0       -1.724619   -4.852055   -1.482020
     60          6           0       -1.992896    3.734250   -0.055228
     61          1           0       -2.362956    4.700754   -0.390166
     62          1           0       -2.407979    2.931150   -0.662417
     63          1           0       -2.235405    3.565063    0.992578
     64          6           0        0.077436    4.841433    0.585389
     65          1           0       -0.234676    4.722553    1.620053
     66          1           0        1.161088    4.801709    0.510804
     67          1           0       -0.289913    5.785467    0.190130
     68          6           0       -0.168344    3.898787   -1.648413
     69          1           0        0.909196    3.977294   -1.757744
     70          1           0       -0.539327    3.029370   -2.190435
     71          1           0       -0.647666    4.808464   -2.002365
     72          7           0       -1.395045   -3.026030   -0.494854
     73          7           0       -0.501838    3.729299   -0.208255
     74          6           0       -3.218455    0.532462    0.190818
     75          8           0       -2.134032    0.489606    0.883494
     76          8           0       -4.350976    0.324919    0.752288
     77          8           0       -3.150487    0.780897   -1.065166
     78          8           0       -1.073535    0.894551   -2.631812
     79          1           0       -1.486244    0.810693   -3.491109
     80          1           0       -1.833667    0.833522   -1.984885
     81          8           0       -5.652691   -2.017779   -0.125520
     82          1           0       -5.242261   -1.227892    0.267983
     83          1           0       -6.602519   -1.827040   -0.089007
     84          8           0       -1.794058   -1.392504    2.765704
     85          1           0       -2.503020   -1.201664    3.388570
     86          1           0       -1.916771   -0.674412    2.109032
     87          8           0       -6.439289    1.149039   -0.919663
     88          1           0       -6.119078    0.785497   -1.753707
     89          1           0       -5.695257    0.976735   -0.308305
     90          8           0       -4.808211   -0.756019   -2.604250
     91          1           0       -5.217385   -1.314049   -1.926573
     92          1           0       -4.225181   -0.165482   -2.088168
     93          8           0       -2.051924    2.365954    2.851573
     94          1           0       -2.705295    2.077284    3.495340
     95          1           0       -2.097946    1.647107    2.188209
     96          8           0       -4.100923    0.277213    3.454481
     97          1           0       -4.983564    0.180159    3.807898
     98          1           0       -4.212728    0.291509    2.472312
     99          8           0       -8.207653   -0.797053   -0.185393
    100          1           0       -7.672090   -0.017274   -0.447559
    101          1           0       -8.663743   -0.541643    0.614487
 ---------------------------------------------------------------------

 The electronic state is 1-A.
 Alpha  occ. eigenvalues --  -19.22060 -19.20645 -19.20494 -19.19858 -19.19459
 Alpha  occ. eigenvalues --  -19.19447 -19.19248 -19.18202 -19.17138 -19.17073
 Alpha  occ. eigenvalues --  -19.16921 -14.57856 -14.57286 -10.38184 -10.35555
 Alpha  occ. eigenvalues --  -10.35318 -10.34377 -10.33436 -10.33403 -10.33214
 Alpha  occ. eigenvalues --  -10.32771 -10.32159 -10.31057 -10.30903 -10.30826
 Alpha  occ. eigenvalues --  -10.30727 -10.30537 -10.30511 -10.30481 -10.30321
 Alpha  occ. eigenvalues --  -10.29948 -10.29863 -10.29802 -10.29707 -10.29582
 Alpha  occ. eigenvalues --  -10.29503 -10.29501 -10.29206 -10.29102 -10.27847
 Alpha  occ. eigenvalues --  -10.27784  -1.14675  -1.14028  -1.13463  -1.08467
 Alpha  occ. eigenvalues --   -1.07738  -1.07296  -1.06391  -1.06079  -1.05864
 Alpha  occ. eigenvalues --   -1.05799  -1.04555  -1.01760  -1.01639  -0.99167
 Alpha  occ. eigenvalues --   -0.98288  -0.94700  -0.92236  -0.89052  -0.88394
 Alpha  occ. eigenvalues --   -0.87318  -0.86898  -0.86308  -0.86139  -0.85993
 Alpha  occ. eigenvalues --   -0.85357  -0.85066  -0.82981  -0.82027  -0.78431
 Alpha  occ. eigenvalues --   -0.74680  -0.73878  -0.72692  -0.72329  -0.72286
 Alpha  occ. eigenvalues --   -0.70716  -0.70352  -0.67222  -0.67070  -0.63594
 Alpha  occ. eigenvalues --   -0.63196  -0.63094  -0.62746  -0.62644  -0.62248
 Alpha  occ. eigenvalues --   -0.61562  -0.60686  -0.59581  -0.59046  -0.58587
 Alpha  occ. eigenvalues --   -0.58420  -0.58152  -0.57484  -0.57299  -0.57123
 Alpha  occ. eigenvalues --   -0.56364  -0.56284  -0.56027  -0.55560  -0.55206
 Alpha  occ. eigenvalues --   -0.54795  -0.54728  -0.54191  -0.53985  -0.53682
 Alpha  occ. eigenvalues --   -0.53404  -0.53285  -0.52997  -0.52308  -0.52284
 Alpha  occ. eigenvalues --   -0.51766  -0.51526  -0.51186  -0.51164  -0.50777
 Alpha  occ. eigenvalues --   -0.50337  -0.50114  -0.50087  -0.49683  -0.49583
 Alpha  occ. eigenvalues --   -0.49204  -0.48854  -0.48822  -0.48400  -0.47963
 Alpha  occ. eigenvalues --   -0.47668  -0.47311  -0.46998  -0.46618  -0.46107
 Alpha  occ. eigenvalues --   -0.45751  -0.45682  -0.45399  -0.45090  -0.44890
 Alpha  occ. eigenvalues --   -0.44185  -0.43999  -0.43895  -0.43773  -0.43539
 Alpha  occ. eigenvalues --   -0.43245  -0.42749  -0.42203  -0.41974  -0.41899
 Alpha  occ. eigenvalues --   -0.41756  -0.40961  -0.40799  -0.38195  -0.36735
 Alpha  occ. eigenvalues --   -0.36376  -0.36096  -0.35759  -0.35430  -0.35298
 Alpha  occ. eigenvalues --   -0.35170  -0.34991  -0.34454  -0.34151  -0.34106
 Alpha  occ. eigenvalues --   -0.34030  -0.32976  -0.32721  -0.31983  -0.28710
 Alpha virt. eigenvalues --    0.02413   0.03055   0.03402   0.03833   0.04224
 Alpha virt. eigenvalues --    0.04541   0.04794   0.05282   0.05746   0.06115
 Alpha virt. eigenvalues --    0.06316   0.06335   0.07120   0.07464   0.07943

 Mulliken charges:
               1
     1  C   -0.467462
     2  C   -0.216075
     3  H    0.124110
     4  H    0.123538
     5  H    0.112369
     6  C    0.066688
     7  H    0.128920
     8  H    0.116064
     9  C   -0.548408
    10  H    0.120649
    11  H    0.143236
    12  H    0.123678
    13  C    0.186141
    14  C   -0.222841
    15  H    0.107539
    16  H    0.125858
    17  H    0.122359
    18  C   -0.441120
    19  H    0.124183
    20  H    0.114536
    21  H    0.123307
    22  C    0.534946
    23  C   -0.245684
    24  C   -0.444374
    25  C   -0.294881
    26  H    0.126851
    27  C   -0.193385
    28  H    0.135063
    29  C   -0.012241
    30  H    0.171074
    31  H    0.144149
    32  C    0.333138
    33  C   -0.314512
    34  C   -0.376463
    35  C   -0.336328
    36  H    0.133679
    37  C   -0.339867
    38  H    0.138912
    39  C    0.063862
    40  H    0.144539
    41  H    0.193869
    42  C   -0.437446
    43  H    0.170659
    44  H    0.207975
    45  C   -0.949359
    46  H    0.255329
    47  H    0.241475
    48  C   -0.284671
    49  H    0.193005
    50  H    0.222103
    51  H    0.197814
    52  C   -0.288329
    53  H    0.169227
    54  H    0.246365
    55  H    0.160674
    56  C   -0.150054
    57  H    0.176424
    58  H    0.177472
    59  H    0.161438
    60  C   -0.160820
    61  H    0.164967
    62  H    0.200080
    63  H    0.227672
    64  C   -0.154048
    65  H    0.194643
    66  H    0.175415
    67  H    0.153652
    68  C   -0.252030
    69  H    0.171021
    70  H    0.232064
    71  H    0.160890
    72  N    0.086912
    73  N    0.127531
    74  C    0.772654
    75  O   -0.875781
    76  O   -0.802184
    77  O   -0.707588
    78  O   -0.671825
    79  H    0.280205
    80  H    0.445526
    81  O   -0.732104
    82  H    0.363392
    83  H    0.408382
    84  O   -0.682045
    85  H    0.331016
    86  H    0.370460
    87  O   -0.651448
    88  H    0.269433
    89  H    0.424606
    90  O   -0.672964
    91  H    0.322001
    92  H    0.367778
    93  O   -0.648522
    94  H    0.335598
    95  H    0.354114
    96  O   -0.693418
    97  H    0.259788
    98  H    0.432517
    99  O   -0.676311
   100  H    0.405987
   101  H    0.243066
 Sum of Mulliken charges =  -0.00000

 Dipole moment (field-independent basis, Debye):
    X=             14.6211    Y=              1.1894    Z=             -1.5093  Tot=             14.7468
 Quadrupole moment (field-independent basis, Debye-Ang):
   XX=           -309.6975   YY=           -203.3267   ZZ=           -265.2740
   XY=             -2.6004   XZ=            -19.5872   YZ=              1.7216

 Normal termination of Gaussian 16 at Sat Mar 16 09:43:16 2024.
