 Gaussian 16, Revision A.03,
 Gaussian 16:  ES64L-G16RevA.03 25-Dec-2016

 -----------------------------------
 #p opt=calcfc wb97xd/6-311+g(2d,2p)
 -----------------------------------

 -----------------------
 no water double bi high
 -----------------------
 Symbolic Z-matrix:
 Charge =  0 Multiplicity = 1

 SCF Done:  E(RwB97XD) =  -1693.71534841     A.U. after   14 cycles

  Exact polarizability:   0.000   0.000   0.000   0.000   0.000   0.000
 Approx polarizability: 460.921  -0.432 375.187  -0.195 -17.939 418.164

 SCF Done:  E(RwB97XD) =  -1693.71534868     A.U. after    8 cycles
 Optimization completed.
    -- Stationary point found.

                         Standard orientation:
 ---------------------------------------------------------------------
 Center     Atomic      Atomic             Coordinates (Angstroms)
 Number     Number       Type             X           Y           Z
 ---------------------------------------------------------------------
      1          6           0        4.898141   -3.777447   -0.644182
      2          6           0        5.210465   -2.504684    0.133669
      3          1           0        5.550301   -4.594603   -0.335822
      4          1           0        3.866073   -4.092845   -0.489262
      5          1           0        5.039105   -3.622644   -1.715751
      6          6           0        4.365581   -1.296335   -0.298725
      7          1           0        5.069931   -2.681093    1.203842
      8          1           0        6.264887   -2.248975    0.005078
      9          6           0        4.804342   -0.037109    0.474471
     10          1           0        4.573231   -1.119551   -1.359297
     11          1           0        4.463287   -0.114329    1.510976
     12          1           0        5.896530   -0.046214    0.520803
     13          6           0        4.395030    1.329123   -0.108573
     14          6           0        5.117852    2.454627    0.651577
     15          1           0        4.744759    1.358210   -1.146067
     16          1           0        4.797857    2.436175    1.697380
     17          1           0        6.188803    2.237367    0.653712
     18          6           0        4.882578    3.842251    0.067512
     19          1           0        5.448015    4.596543    0.614682
     20          1           0        5.194900    3.883589   -0.978010
     21          1           0        3.828144    4.116064    0.108734
     22          6           0        2.897884    1.564204   -0.131750
     23          6           0        2.238874    1.905651   -1.307213
     24          6           0        2.136632    1.407374    1.023137
     25          6           0        0.855281    2.007627   -1.349134
     26          1           0        2.809865    2.034863   -2.218539
     27          6           0        0.758539    1.498912    0.988550
     28          1           0        2.619153    1.141041    1.954585
     29          6           0        0.098082    1.783063   -0.205454
     30          1           0        0.357446    2.190643   -2.293476
     31          1           0        0.174010    1.280300    1.874211
     32          6           0        2.879467   -1.570398   -0.174015
     33          6           0        2.041025   -1.403157   -1.268445
     34          6           0        2.302756   -1.919318    1.045483
     35          6           0        0.665809   -1.494817   -1.141323
     36          1           0        2.466537   -1.127109   -2.224865
     37          6           0        0.927516   -2.018649    1.180299
     38          1           0        2.928355   -2.055849    1.918994
     39          6           0        0.091084   -1.786533    0.091535
     40          1           0        0.022403   -1.270024   -1.983539
     41          1           0        0.494993   -2.208044    2.155106
     42          6           0       -1.395044   -1.667964    0.251343
     43          1           0       -1.661891   -1.312954    1.244778
     44          1           0       -1.778615   -0.994493   -0.509070
     45          6           0       -1.395729    1.663669   -0.259154
     46          1           0       -1.732984    1.308089   -1.230824
     47          1           0       -1.723810    0.990209    0.526895
     48          6           0       -3.639482   -2.562061    0.032049
     49          1           0       -4.230484   -3.471092   -0.059078
     50          1           0       -3.857518   -2.055496    0.970535
     51          1           0       -3.812752   -1.919795   -0.828311
     52          6           0       -1.945967   -3.879452    1.172538
     53          1           0       -0.889851   -4.135202    1.187372
     54          1           0       -2.233932   -3.373606    2.092791
     55          1           0       -2.542463   -4.776502    1.021629
     56          6           0       -1.857242   -3.576671   -1.259762
     57          1           0       -2.019130   -2.833418   -2.040528
     58          1           0       -0.818829   -3.893983   -1.241879
     59          1           0       -2.509606   -4.435428   -1.401265
     60          6           0       -3.618659    2.557972    0.123041
     61          1           0       -4.201094    3.467205    0.257142
     62          1           0       -3.905335    2.051290   -0.796736
     63          1           0       -3.727598    1.916268    0.994239
     64          6           0       -1.747469    3.574559    1.279559
     65          1           0       -1.853111    2.832895    2.071364
     66          1           0       -0.713150    3.892003    1.186203
     67          1           0       -2.387855    4.433677    1.466263
     68          6           0       -2.012887    3.874021   -1.140055
     69          1           0       -0.960514    4.128830   -1.232866
     70          1           0       -2.368415    3.367644   -2.036043
     71          1           0       -2.595999    4.771632   -0.946310
     72          7           0       -2.194155   -2.945238    0.044716
     73          7           0       -2.178046    2.941027    0.003945
     74          6           0       -3.258454    0.065845   -2.764022
     75          8           0       -2.241999   -0.595721   -2.495240
     76          8           0       -3.414890    1.302053   -2.783643
     77          8           0       -4.382874   -0.699457   -3.043518
     78          1           0       -5.074028   -0.065485   -3.246701
     79          6           0       -3.051712   -0.060934    2.887053
     80          8           0       -2.056396    0.596536    2.539933
     81          8           0       -3.211961   -1.296480    2.916586
     82          8           0       -4.146552    0.708812    3.256420
     83          1           0       -4.822612    0.077493    3.511933
 ---------------------------------------------------------------------

 The electronic state is 1-A.
 Alpha  occ. eigenvalues --  -19.23685 -19.23684 -19.16791 -19.16786 -19.16783
 Alpha  occ. eigenvalues --  -19.16781 -14.56293 -14.56291 -10.38774 -10.38768
 Alpha  occ. eigenvalues --  -10.33425 -10.33407 -10.32885 -10.32872 -10.32060
 Alpha  occ. eigenvalues --  -10.32034 -10.31574 -10.31547 -10.29484 -10.29428
 Alpha  occ. eigenvalues --  -10.29422 -10.29406 -10.29384 -10.29367 -10.28787
 Alpha  occ. eigenvalues --  -10.28766 -10.28502 -10.28429 -10.28402 -10.28267
 Alpha  occ. eigenvalues --  -10.28188 -10.28185 -10.28181 -10.28180 -10.28105
 Alpha  occ. eigenvalues --  -10.26896 -10.26866  -1.16717  -1.16711  -1.12548
 Alpha  occ. eigenvalues --   -1.12539  -1.06218  -1.06215  -1.03296  -1.03287
 Alpha  occ. eigenvalues --   -0.97803  -0.96773  -0.93484  -0.90948  -0.87818
 Alpha  occ. eigenvalues --   -0.87007  -0.85694  -0.85609  -0.84933  -0.84783
 Alpha  occ. eigenvalues --   -0.84701  -0.84604  -0.84062  -0.81736  -0.80882
 Alpha  occ. eigenvalues --   -0.77327  -0.73536  -0.72432  -0.71465  -0.71300
 Alpha  occ. eigenvalues --   -0.70738  -0.69481  -0.68882  -0.65888  -0.65841
 Alpha  occ. eigenvalues --   -0.64777  -0.64674  -0.62319  -0.61761  -0.61653
 Alpha  occ. eigenvalues --   -0.61561  -0.61362  -0.60963  -0.59593  -0.57818
 Alpha  occ. eigenvalues --   -0.56544  -0.56231  -0.54907  -0.54356  -0.54245
 Alpha  occ. eigenvalues --   -0.53974  -0.53878  -0.53443  -0.53342  -0.52932
 Alpha  occ. eigenvalues --   -0.52580  -0.52294  -0.52149  -0.52071  -0.51785
 Alpha  occ. eigenvalues --   -0.51341  -0.51235  -0.50876  -0.50672  -0.50217
 Alpha  occ. eigenvalues --   -0.50010  -0.49247  -0.49039  -0.48842  -0.48777
 Alpha  occ. eigenvalues --   -0.48483  -0.48430  -0.48335  -0.48209  -0.47868
 Alpha  occ. eigenvalues --   -0.47196  -0.46756  -0.46405  -0.46124  -0.45890
 Alpha  occ. eigenvalues --   -0.45482  -0.44865  -0.44819  -0.44240  -0.43913
 Alpha  occ. eigenvalues --   -0.43656  -0.42929  -0.42420  -0.42351  -0.40979
 Alpha  occ. eigenvalues --   -0.40703  -0.40601  -0.39835  -0.39620  -0.36553
 Alpha  occ. eigenvalues --   -0.36471  -0.34498  -0.34103  -0.33806  -0.33637
 Alpha  occ. eigenvalues --   -0.32257  -0.32001  -0.31925  -0.30362  -0.30256
 Alpha  occ. eigenvalues --   -0.30210
 Alpha virt. eigenvalues --    0.03336   0.04152   0.04580   0.04932   0.05440
 Alpha virt. eigenvalues --    0.05709   0.06187   0.06499   0.06619   0.06688
 Alpha virt. eigenvalues --    0.07250   0.07581   0.07613   0.07939   0.08079

 Mulliken charges:
               1
     1  C   -0.451909
     2  C   -0.196557
     3  H    0.121736
     4  H    0.125179
     5  H    0.113442
     6  C    0.091601
     7  H    0.124627
     8  H    0.119570
     9  C   -0.520102
    10  H    0.110853
    11  H    0.145361
    12  H    0.121294
    13  C    0.059557
    14  C   -0.216526
    15  H    0.113958
    16  H    0.126903
    17  H    0.115620
    18  C   -0.470220
    19  H    0.121784
    20  H    0.111912
    21  H    0.125444
    22  C    0.422769
    23  C   -0.328664
    24  C   -0.351829
    25  C   -0.294361
    26  H    0.131241
    27  C   -0.201764
    28  H    0.134101
    29  C    0.063634
    30  H    0.154717
    31  H    0.183763
    32  C    0.489866
    33  C   -0.262340
    34  C   -0.427578
    35  C   -0.285124
    36  H    0.128626
    37  C   -0.221650
    38  H    0.134185
    39  C    0.122838
    40  H    0.186346
    41  H    0.154760
    42  C   -0.940660
    43  H    0.265897
    44  H    0.213915
    45  C   -0.833275
    46  H    0.266174
    47  H    0.211545
    48  C   -0.221135
    49  H    0.158269
    50  H    0.216340
    51  H    0.202650
    52  C   -0.190800
    53  H    0.173276
    54  H    0.227453
    55  H    0.145000
    56  C   -0.258297
    57  H    0.226759
    58  H    0.171029
    59  H    0.155201
    60  C   -0.222422
    61  H    0.158139
    62  H    0.216602
    63  H    0.201360
    64  C   -0.261082
    65  H    0.225600
    66  H    0.170642
    67  H    0.155074
    68  C   -0.198756
    69  H    0.174320
    70  H    0.226917
    71  H    0.144671
    72  N    0.212502
    73  N    0.189911
    74  C    0.883506
    75  O   -0.806436
    76  O   -0.672136
    77  O   -0.448948
    78  H    0.288836
    79  C    0.889979
    80  O   -0.816644
    81  O   -0.668311
    82  O   -0.448464
    83  H    0.288731
 Sum of Mulliken charges =  -0.00000

 Dipole moment (field-independent basis, Debye):
    X=              3.2327    Y=              0.0133    Z=             -0.0317  Tot=              3.2328
 Quadrupole moment (field-independent basis, Debye-Ang):
   XX=           -214.1100   YY=           -186.6695   ZZ=           -257.0098
   XY=              0.2405   XZ=             -1.7160   YZ=             -1.3544

 Normal termination of Gaussian 16 at Fri Mar 15 16:06:15 2024.
